/*--------------------------------*- C++ -*----------------------------------*\
| =========                 |                                                 |
| \\      /  F ield         | OpenFOAM: The Open Source CFD Toolbox           |
|  \\    /   O peration     | Version:  2312                                  |
|   \\  /    A nd           | Website:  www.openfoam.com                      |
|    \\/     M anipulation  |                                                 |
\*---------------------------------------------------------------------------*/
FoamFile
{
    version     2.0;
    format      ascii;
    arch        "LSB;label=32;scalar=64";
    class       volScalarField;
    location    "4000";
    object      epsilon;
}
// * * * * * * * * * * * * * * * * * * * * * * * * * * * * * * * * * * * * * //

dimensions      [0 2 -3 0 0 0 0];

internalField   nonuniform List<scalar> 
5880
(
0.000505049
0.001118
0.00230186
0.00362966
0.00449477
0.00469591
0.00467729
0.00472258
0.00505446
0.00566451
0.00633681
0.00691649
0.00732137
0.00750815
0.00742194
0.00698029
0.00641575
0.00829938
0.0120272
0.0178645
0.0268193
0.0391572
0.054108
0.0717548
0.0914596
0.112257
0.13328
0.15356
0.172324
0.188866
0.202694
0.212891
0.218959
0.220348
0.218908
0.211625
0.200433
0.185621
0.167643
0.147304
0.125444
0.102996
0.0808967
0.0602175
0.0419958
0.0273237
0.0203684
0.0219236
0.0231535
0.0219112
0.0177542
0.0109298
0.00491408
0.00153377
0.000470239
0.000371747
0.000529958
0.000797907
0.00111475
0.00135228
0.00145427
0.00150539
0.00159451
0.00180289
0.00215269
0.00258879
0.00307055
0.00358769
0.00414732
0.00475791
0.00543223
0.00631295
0.00799267
0.0103523
0.0134387
0.0173718
0.0220034
0.0266159
0.0312817
0.0357945
0.0399313
0.0435838
0.0466599
0.049168
0.0507163
0.0524041
0.0525391
0.0524568
0.0515602
0.050636
0.0489543
0.0467703
0.0439991
0.0408109
0.037221
0.0333228
0.0291833
0.0249101
0.0206126
0.0164552
0.0127273
0.0103033
0.00933044
0.00844568
0.00737286
0.00609944
0.00420096
0.00224401
0.000883788
0.000307941
0.000678607
0.000544552
0.00055017
0.000597159
0.000663648
0.000726349
0.000815505
0.000982676
0.00127947
0.00172754
0.00231982
0.00305478
0.00392435
0.00494378
0.0061345
0.0075207
0.00911765
0.0109894
0.012921
0.0147477
0.0165227
0.0180384
0.0192014
0.0201447
0.0208774
0.0214159
0.0217995
0.0219905
0.0221461
0.022115
0.0221667
0.0219732
0.0218419
0.0216432
0.0214885
0.0211953
0.020829
0.0203413
0.0197411
0.0190094
0.0181269
0.0170525
0.0157561
0.014224
0.0124761
0.0106285
0.00890981
0.00741349
0.00596068
0.00462984
0.0035244
0.00249496
0.0015146
0.000730861
0.000482525
0.00123602
0.000804561
0.000636313
0.000577185
0.000586388
0.000646483
0.000801181
0.00109559
0.00156389
0.00222852
0.00309655
0.00417659
0.0054855
0.00699706
0.00860816
0.0101931
0.0115597
0.0125161
0.0131613
0.0135923
0.0137014
0.0136561
0.013593
0.0134945
0.0134037
0.0133208
0.0132769
0.0132332
0.0132434
0.0132723
0.0133621
0.0134579
0.0136175
0.0137963
0.0139986
0.0141869
0.0143672
0.0145094
0.0145805
0.0145926
0.0144697
0.0141932
0.0136931
0.0129147
0.0118286
0.0104404
0.00886546
0.00721115
0.00555623
0.00405564
0.00285391
0.00195476
0.00125428
0.000711054
0.00076558
0.00208316
0.00117745
0.000843753
0.000721834
0.00072471
0.000823664
0.00108767
0.0015793
0.00232711
0.00333783
0.00459689
0.00607901
0.00771145
0.00931582
0.0105783
0.011374
0.0115849
0.0116693
0.011352
0.0107848
0.0104274
0.0101121
0.00988491
0.00971207
0.00962893
0.00958242
0.00958547
0.00965042
0.00976463
0.00992221
0.0101282
0.0103716
0.0106594
0.010975
0.0113172
0.0116732
0.0120379
0.012395
0.0127254
0.0130049
0.0131456
0.0131774
0.0130142
0.0125692
0.0117972
0.0106603
0.00919888
0.00749466
0.00570306
0.0040369
0.00269087
0.00173962
0.00110833
0.000718737
0.00113852
0.00318445
0.00159652
0.00110787
0.000969692
0.00100884
0.00122044
0.00169129
0.0024768
0.00359016
0.00498998
0.00658662
0.00822357
0.00966285
0.0104848
0.0107003
0.0107113
0.0102068
0.00945314
0.00887069
0.00841526
0.00811618
0.00789199
0.00777838
0.00770569
0.00770033
0.00774192
0.00783717
0.00797734
0.00815907
0.00838022
0.00864001
0.00893513
0.00926463
0.00962335
0.010009
0.010415
0.010835
0.0112572
0.0116657
0.0120388
0.0123416
0.0124906
0.0125208
0.0123232
0.0118176
0.0109619
0.00971283
0.00811124
0.0062714
0.00441168
0.00281411
0.00168857
0.00102071
0.000735282
0.00154412
0.00441804
0.00201639
0.00144271
0.00134404
0.00148439
0.00190065
0.00266732
0.00382036
0.00530041
0.00694994
0.0085261
0.00964724
0.0100457
0.0101118
0.00969487
0.00886029
0.00808357
0.00752346
0.00713046
0.00686084
0.00670665
0.00660366
0.00658388
0.00658552
0.00665264
0.00675414
0.00689565
0.00707104
0.0072795
0.00751925
0.00778908
0.00808727
0.00841235
0.00876184
0.00913343
0.00952298
0.00992575
0.0103345
0.0107401
0.0111316
0.0114891
0.0117817
0.0119334
0.011971
0.0117814
0.0112933
0.0104126
0.00910244
0.0073638
0.00533637
0.00335455
0.00184832
0.00102551
0.000762286
0.00190321
0.00561467
0.0024402
0.00190756
0.00191589
0.00224244
0.00293639
0.00404622
0.00551226
0.00712676
0.00857586
0.00930368
0.00953012
0.0093897
0.00865083
0.00774031
0.00707305
0.00656807
0.00624161
0.00602832
0.00589986
0.00585579
0.00583301
0.00585814
0.00592412
0.0060265
0.00615735
0.00631757
0.00650396
0.00671576
0.00695188
0.00721136
0.00749296
0.00779542
0.00811721
0.00845651
0.00881075
0.00917675
0.00954992
0.00992666
0.0103062
0.0106799
0.0110355
0.011359
0.0115947
0.01169
0.0116286
0.0112327
0.0104166
0.00903679
0.00703942
0.0046446
0.00245877
0.00119331
0.0008563
0.0021177
0.00680239
0.00301887
0.00261093
0.00277888
0.00334204
0.00432223
0.00566575
0.00715125
0.00832476
0.00887016
0.00898362
0.00861047
0.0076986
0.0068915
0.00627648
0.005868
0.00559194
0.00542742
0.0053538
0.00528987
0.00529386
0.00532824
0.00539434
0.00548935
0.00560973
0.00575352
0.0059201
0.00610829
0.00631755
0.00654717
0.00679657
0.00706511
0.0073521
0.0076567
0.00797789
0.00831436
0.00866451
0.00902627
0.00939631
0.00977397
0.0101586
0.0105416
0.0109222
0.0112935
0.0116426
0.0118699
0.0119472
0.0117345
0.0110074
0.00946439
0.00699769
0.004006
0.0017636
0.00101824
0.00217581
0.007906
0.00389506
0.00361751
0.00396836
0.00472873
0.00582547
0.0070475
0.00796482
0.0083048
0.00835602
0.00777978
0.00690773
0.00619021
0.0056647
0.00531417
0.00509364
0.00497418
0.00489186
0.00487594
0.00486801
0.00491006
0.00497286
0.00506028
0.00516973
0.00529995
0.00545036
0.00562063
0.00581051
0.00601998
0.00624895
0.00649741
0.00676531
0.00705251
0.00735868
0.00768331
0.00802562
0.00838464
0.00875929
0.00914709
0.00954242
0.0099487
0.0103538
0.0107607
0.0111703
0.0115934
0.0120377
0.0124622
0.0126712
0.0126964
0.0120123
0.0101838
0.00694771
0.00321375
0.00150521
0.00216353
0.00912071
0.00505927
0.00490815
0.00538698
0.00615514
0.00703406
0.00761451
0.00782583
0.00774521
0.00705337
0.00626106
0.00562099
0.00517018
0.00487301
0.00468858
0.00458118
0.00453965
0.00450907
0.00451477
0.00455016
0.00460869
0.00468624
0.00478344
0.00489917
0.00503323
0.00518568
0.00535677
0.00554698
0.00575692
0.00598736
0.00623909
0.0065129
0.00680939
0.00712883
0.00747108
0.00783545
0.00822056
0.00862447
0.00904502
0.00947985
0.00991758
0.0103477
0.0107909
0.0112455
0.0117207
0.0122251
0.0127729
0.0133596
0.0137866
0.0139349
0.0132745
0.010879
0.00631255
0.00262317
0.00220987
0.0110306
0.00648529
0.00634305
0.0067602
0.00721845
0.0074493
0.00747268
0.00718029
0.00647217
0.00575251
0.00517269
0.00476971
0.00450843
0.00434622
0.0042615
0.00420415
0.00419342
0.00419074
0.00421952
0.00426642
0.00433056
0.00441069
0.00450677
0.00461869
0.00474688
0.00489207
0.0050553
0.00523789
0.00544143
0.00566769
0.00591857
0.00619598
0.00650169
0.00683721
0.00720361
0.00760132
0.00802983
0.00848743
0.00897089
0.009476
0.00999807
0.0105506
0.0110793
0.0115987
0.0121326
0.0126818
0.0132616
0.0139044
0.0146404
0.0153104
0.0155911
0.0148825
0.0115964
0.0052834
0.00268457
0.0155465
0.00820806
0.00769329
0.00772748
0.00765246
0.00733664
0.00686847
0.00610467
0.005395
0.00484047
0.00445608
0.0042075
0.0040532
0.00396063
0.00391906
0.00388745
0.00388537
0.00389703
0.00392751
0.00397071
0.00402651
0.00409447
0.00417487
0.00426836
0.0043761
0.00449966
0.00464109
0.00480279
0.00498755
0.00519843
0.00543868
0.00571162
0.00602057
0.00636859
0.00675829
0.00719159
0.00766942
0.00819148
0.0087559
0.00935868
0.00999308
0.0106502
0.011347
0.012038
0.0126973
0.013371
0.0140492
0.0147516
0.0155299
0.0164639
0.0175442
0.018081
0.0176461
0.0126665
0.007363
0.0217059
0.00995327
0.00860291
0.00814953
0.00758087
0.0068778
0.00599567
0.00521824
0.00463123
0.00422842
0.00396715
0.00380214
0.00369987
0.00363635
0.00360567
0.00358244
0.00357819
0.00358159
0.00359703
0.00362024
0.00365135
0.00369062
0.00373893
0.00379767
0.00386883
0.00395494
0.00405903
0.00418466
0.00433585
0.00451703
0.004733
0.00498883
0.0052897
0.00564073
0.00604669
0.00651168
0.00703873
0.00762943
0.00828346
0.00899826
0.00976862
0.0105859
0.0114367
0.0123309
0.0132268
0.0141038
0.0149843
0.0158638
0.0167725
0.0177926
0.0190952
0.0209225
0.0231082
0.0242074
0.0223751
0.0284425
0.0112368
0.00888871
0.00802487
0.00717949
0.00614907
0.00524038
0.00455514
0.00408933
0.00378716
0.00359324
0.00346757
0.00338451
0.00332679
0.00328722
0.00325526
0.00323154
0.00321269
0.00319828
0.00318702
0.00317997
0.00317722
0.00317836
0.00318845
0.00320907
0.00324355
0.00329572
0.00337014
0.0034721
0.00360722
0.00378193
0.0040032
0.00427848
0.00461554
0.00502216
0.00550569
0.00607252
0.00672746
0.00747319
0.00830969
0.00923307
0.0102354
0.0113047
0.0124228
0.0135951
0.0147532
0.0159178
0.0170809
0.0182562
0.0195125
0.021036
0.0232958
0.0274379
0.0363208
0.0529412
0.0353613
0.0120812
0.00876287
0.00757792
0.00649644
0.00546753
0.00463716
0.0040535
0.00367256
0.00342713
0.00326489
0.00315225
0.00306884
0.00300168
0.00294402
0.00289017
0.00283811
0.00278595
0.00273289
0.00267868
0.00262394
0.00256981
0.00251821
0.00247207
0.00243436
0.00241209
0.00240438
0.00241403
0.00245352
0.0025264
0.00264074
0.00280518
0.00302968
0.00332541
0.00370447
0.00417929
0.00476165
0.00546154
0.00628648
0.00724277
0.00833018
0.0095422
0.0108662
0.0122832
0.0137665
0.0153051
0.0168444
0.018376
0.0199103
0.0214943
0.0233158
0.0259385
0.0311607
0.0458796
0.0878117
0.0422984
0.0127638
0.00833926
0.00683822
0.00577617
0.00485639
0.00413842
0.00364004
0.00331376
0.00309877
0.00294937
0.00283688
0.00274422
0.00266099
0.00258122
0.00250089
0.00241787
0.00233086
0.00223948
0.00214406
0.00204567
0.00194605
0.00184755
0.001753
0.00166556
0.00158866
0.00152552
0.00148323
0.00146569
0.00146531
0.00150244
0.00158532
0.00172525
0.00193693
0.00223896
0.00265317
0.00320206
0.00390328
0.00476508
0.00581402
0.00705845
0.00849584
0.0101145
0.011893
0.013801
0.0158123
0.0178609
0.0199154
0.0219582
0.0240214
0.0262503
0.029192
0.0348684
0.0525609
0.120302
0.049882
0.013418
0.00782173
0.00606923
0.00507067
0.00429238
0.00369282
0.00326713
0.00297849
0.00278036
0.00263577
0.00252046
0.00241959
0.00232412
0.00222872
0.00213013
0.00202663
0.00191751
0.00180296
0.00168398
0.00156236
0.00144052
0.00132134
0.00120797
0.00110358
0.00101109
0.000933081
0.000871807
0.000830804
0.000813008
0.000812188
0.000840515
0.000901724
0.00100431
0.00116405
0.0014067
0.00177142
0.00231357
0.00309952
0.00415749
0.00550918
0.00715721
0.00909471
0.0112981
0.0137563
0.0163581
0.019082
0.0218682
0.0246632
0.0274614
0.0303897
0.0339608
0.0402801
0.0599659
0.152077
0.0530287
0.0138954
0.00728192
0.0054412
0.00451325
0.00385679
0.0033544
0.00298152
0.00271484
0.00252378
0.00237984
0.00226149
0.0021552
0.00205272
0.00194933
0.00184235
0.00173059
0.00161392
0.00149343
0.00137096
0.001249
0.00113031
0.00101785
0.000914374
0.000822275
0.000743322
0.000678669
0.000628578
0.000593629
0.000576238
0.000574166
0.000587306
0.000617528
0.000670341
0.000755727
0.000890757
0.00110507
0.00144831
0.00199718
0.00285299
0.0041185
0.00585161
0.00807616
0.0107628
0.0137871
0.0171436
0.0207638
0.0245536
0.0284179
0.0322996
0.036274
0.0408172
0.0479971
0.0690011
0.183686
0.0534579
0.0154838
0.00777836
0.00531789
0.00418514
0.00351578
0.00305699
0.00272197
0.00247246
0.00228303
0.00213559
0.00201653
0.00191308
0.00181673
0.00172214
0.0016266
0.00152947
0.00143223
0.00133479
0.00123775
0.00114235
0.00105001
0.00096239
0.000880927
0.000806929
0.000741237
0.000684453
0.000637271
0.000600551
0.000574796
0.000561873
0.000562931
0.000577245
0.000611519
0.000672363
0.000770885
0.000928853
0.00118615
0.00161533
0.00233637
0.00349842
0.00523753
0.00759991
0.0106034
0.0142902
0.0186092
0.0234341
0.0286282
0.0340503
0.0395833
0.0452312
0.0514299
0.0602809
0.0832252
0.218814
0.0392472
0.0132568
0.00726299
0.00518633
0.00415291
0.00349791
0.0030386
0.00271787
0.00248073
0.0022916
0.00213533
0.00200425
0.00189158
0.00179139
0.00169946
0.00161255
0.00152882
0.00144569
0.00136178
0.00127772
0.00119529
0.00111572
0.00104049
0.000970676
0.000907479
0.000851665
0.000804095
0.0007654
0.000736121
0.000717124
0.000710734
0.00071696
0.000737137
0.000781735
0.000856101
0.000971138
0.00114403
0.00140236
0.00179729
0.00243453
0.00350719
0.0052673
0.00792903
0.0115942
0.0162559
0.0218563
0.0283086
0.0354824
0.0432083
0.051308
0.0597021
0.0687664
0.0807374
0.108118
0.266707
0.0196298
0.0112524
0.00738781
0.00541204
0.00437264
0.00382132
0.00345133
0.00314749
0.00289012
0.0026828
0.00251581
0.00237708
0.0022588
0.00215445
0.00206049
0.00197368
0.00189273
0.00181541
0.00174281
0.0016745
0.00161068
0.00155171
0.00149836
0.00145122
0.0014113
0.00137953
0.00135671
0.00134451
0.00134518
0.00135709
0.00137691
0.00142502
0.00150463
0.00165617
0.00188858
0.00222966
0.0027169
0.00340136
0.00435269
0.00566884
0.00749026
0.0100019
0.0133996
0.0178681
0.0235843
0.0307084
0.039318
0.0493437
0.0606179
0.0728797
0.0858942
0.0998854
0.117251
0.152756
0.351193
0.00850737
0.00630556
0.00612916
0.00619327
0.00631672
0.0065247
0.00675705
0.0069749
0.00716073
0.00731324
0.00743735
0.0075344
0.00759786
0.00763248
0.0076344
0.00762254
0.00759571
0.00756456
0.0075366
0.00751581
0.00750911
0.00751413
0.00754427
0.00758403
0.00765336
0.00774982
0.00787703
0.00803958
0.00824025
0.00849032
0.00878309
0.00916036
0.00952826
0.0103116
0.0115103
0.0131219
0.0151486
0.0175982
0.0204793
0.0237966
0.0275775
0.0318967
0.0369171
0.0429705
0.0505976
0.0604956
0.0731134
0.0882006
0.105948
0.126137
0.148242
0.171989
0.199744
0.250586
0.504677
0.0510381
0.0639497
0.0806598
0.0943373
0.104761
0.112266
0.117462
0.120822
0.122746
0.123531
0.123436
0.123
0.122028
0.120783
0.119328
0.117774
0.116158
0.114557
0.112995
0.111524
0.110149
0.108905
0.107811
0.106891
0.106154
0.10561
0.105258
0.105142
0.105173
0.105523
0.106057
0.106876
0.107933
0.109032
0.11019
0.111424
0.112756
0.114213
0.115836
0.117685
0.119863
0.122542
0.126011
0.130731
0.137335
0.146581
0.159371
0.176819
0.199062
0.225799
0.256492
0.29128
0.334548
0.419446
0.81339
4.70993
1.66495
0.895309
0.614647
0.485021
0.413978
0.370248
0.339854
0.318198
0.301817
0.289003
0.278991
0.271031
0.264496
0.259133
0.25435
0.250329
0.246571
0.243187
0.239999
0.237087
0.234308
0.231754
0.229271
0.227023
0.224796
0.222794
0.220786
0.218981
0.217149
0.215522
0.213846
0.212373
0.21083
0.209489
0.208061
0.206832
0.20551
0.204372
0.203147
0.202092
0.200949
0.199966
0.198899
0.197979
0.19698
0.19612
0.195178
0.194372
0.193481
0.192726
0.191884
0.191172
0.190378
0.189701
0.188953
0.188307
0.187605
0.186983
0.186325
0.185721
0.185108
0.184518
0.183947
0.183368
0.182836
0.182265
0.181771
0.181201
0.180744
0.180165
0.179745
0.179142
0.178751
0.178102
0.177703
0.176971
0.17647
0.174956
0.175959
2.67474
0.77813
0.328178
0.188761
0.135016
0.111942
0.100842
0.0958271
0.0941413
0.093607
0.0935239
0.0943706
0.0950433
0.095451
0.0957345
0.0954519
0.0953551
0.0947863
0.0941789
0.0934798
0.0927462
0.0919717
0.0911851
0.0903894
0.0896204
0.0888419
0.088106
0.0873622
0.0866675
0.0859579
0.0853116
0.0846456
0.0840461
0.08342
0.0828649
0.0822751
0.0817612
0.0812072
0.0807276
0.0802103
0.0797621
0.0792753
0.0788569
0.0783988
0.0780073
0.0775759
0.0772098
0.0768005
0.0764587
0.0760687
0.0757516
0.07538
0.0750831
0.0747297
0.0744494
0.0741149
0.0738488
0.073532
0.0732786
0.0729789
0.072736
0.0724534
0.0722189
0.0719528
0.0717254
0.0714753
0.0712539
0.0710191
0.070802
0.0705836
0.0703676
0.0701689
0.0699465
0.0697764
0.0695338
0.069402
0.0691502
0.0690007
0.068966
0.0693112
2.57011
0.711486
0.270307
0.131594
0.0780401
0.0543535
0.0429639
0.0374701
0.0348357
0.0345294
0.0345196
0.0356302
0.0367042
0.0382303
0.039743
0.0410828
0.0423655
0.0433951
0.0442372
0.044894
0.0453958
0.0457581
0.046008
0.0461562
0.0462402
0.0462442
0.0462136
0.0461514
0.0460464
0.0459043
0.0457627
0.0455871
0.0454216
0.0452244
0.0450465
0.0448367
0.0446531
0.0444392
0.0442519
0.0440397
0.0438547
0.0436439
0.0434628
0.0432563
0.0430796
0.0428797
0.0427082
0.0425136
0.0423493
0.0421599
0.0420051
0.0418202
0.0416738
0.0414936
0.041355
0.0411802
0.0410488
0.0408792
0.0407549
0.0405903
0.0404725
0.0403131
0.0402011
0.0400469
0.0399402
0.0397913
0.0396896
0.0395459
0.0394484
0.0393111
0.0392167
0.0390879
0.0389943
0.0388782
0.0387813
0.0386864
0.0385877
0.0385197
0.0385656
0.0386131
2.56911
0.712932
0.268682
0.1264
0.0700888
0.044057
0.0306566
0.0232794
0.01904
0.0167166
0.0154403
0.0150612
0.0150484
0.0155359
0.0160967
0.0169797
0.0180071
0.0190665
0.0201328
0.0211623
0.0221259
0.0230054
0.0237933
0.0244826
0.0250861
0.0255969
0.0260374
0.026405
0.0267155
0.0269632
0.027174
0.0273335
0.02747
0.0275629
0.0276443
0.0276877
0.0277275
0.0277367
0.0277397
0.0277286
0.0277105
0.0276758
0.0276445
0.0275926
0.0275502
0.0274885
0.0274382
0.0273683
0.0273134
0.027237
0.0271801
0.0270999
0.0270413
0.0269579
0.026899
0.0268143
0.0267556
0.02667
0.0266121
0.0265256
0.0264697
0.0263827
0.0263288
0.0262416
0.0261901
0.026103
0.026054
0.0259673
0.0259202
0.0258359
0.0257897
0.0257094
0.0256644
0.0255889
0.0255468
0.0254786
0.0254439
0.0254004
0.0254342
0.025495
2.56991
0.714632
0.270153
0.127
0.0697842
0.0429232
0.0287177
0.0205315
0.0155262
0.0123293
0.0102713
0.0089232
0.0080953
0.00761201
0.00741687
0.00742666
0.00764868
0.00793328
0.00839633
0.00895258
0.00957667
0.0102429
0.0109357
0.0116318
0.0123192
0.0129773
0.0136043
0.0141861
0.0147262
0.015214
0.0156612
0.016057
0.0164185
0.0167325
0.0170198
0.0172646
0.0174892
0.017678
0.0178499
0.0179936
0.0181245
0.0182306
0.0183287
0.0184045
0.0184765
0.0185281
0.01858
0.0186113
0.0186478
0.0186627
0.0186862
0.0186914
0.0187005
0.0186968
0.0186977
0.0186885
0.0186807
0.0186659
0.0186536
0.0186334
0.0186183
0.0185934
0.0185756
0.0185474
0.0185273
0.0184963
0.018475
0.0184411
0.0184197
0.0183837
0.018362
0.0183258
0.018304
0.0182689
0.0182484
0.0182154
0.0182091
0.0181889
0.0182153
0.018279
2.56958
0.714521
0.27029
0.127191
0.0699287
0.0429537
0.028593
0.0202084
0.0149774
0.0115274
0.00918009
0.00752164
0.00634519
0.00549284
0.00488872
0.00446052
0.00419954
0.00402187
0.00399315
0.00401942
0.00413709
0.00431252
0.00456433
0.00487166
0.00522917
0.00562132
0.00604654
0.00649061
0.00694984
0.00740921
0.00786838
0.00831237
0.00874533
0.00915303
0.00954391
0.00990483
0.0102468
0.0105588
0.0108514
0.0111165
0.0113642
0.0115861
0.0117941
0.0119776
0.0121516
0.0123014
0.012447
0.0125676
0.0126894
0.0127853
0.0128869
0.0129628
0.0130467
0.0131055
0.0131752
0.0132197
0.0132777
0.0133099
0.0133583
0.0133802
0.0134199
0.0134361
0.013465
0.0134775
0.0134979
0.0135069
0.0135207
0.0135226
0.0135334
0.0135321
0.0135401
0.013536
0.013542
0.0135359
0.0135422
0.0135361
0.013549
0.0135509
0.0135825
0.0136354
2.56988
0.714555
0.270484
0.127391
0.070058
0.0430317
0.0286351
0.0202165
0.0149414
0.0114416
0.00902552
0.00729111
0.00601949
0.00505933
0.00433126
0.00376315
0.00333116
0.00298892
0.00273502
0.00254261
0.00241252
0.00232404
0.0022897
0.00229664
0.00234247
0.00241266
0.00253148
0.00268106
0.00286528
0.003076
0.00331572
0.00357451
0.00385608
0.0041485
0.00445541
0.00476426
0.00507911
0.00538802
0.00569582
0.0059912
0.00628149
0.00655423
0.00682091
0.0070662
0.00730698
0.00752332
0.0077384
0.00792652
0.00811728
0.00827913
0.00844735
0.00858559
0.00873331
0.00885048
0.00898014
0.00907858
0.00919262
0.00927442
0.00937508
0.00944233
0.00953118
0.00958626
0.00966451
0.00970898
0.0097782
0.0098135
0.00987471
0.0099022
0.00995562
0.00997901
0.0100238
0.0100445
0.0100823
0.0101013
0.0101343
0.0101533
0.0101853
0.010211
0.010257
0.0103094
2.56953
0.714069
0.270141
0.127199
0.0699562
0.0429794
0.0286112
0.020208
0.0149363
0.011436
0.0090115
0.00726653
0.00597723
0.00499671
0.00423989
0.00364153
0.00316588
0.00278029
0.00246763
0.00221144
0.00200218
0.00183167
0.00169267
0.00158474
0.00150032
0.00143989
0.00139918
0.00138163
0.00138887
0.00140418
0.00144451
0.00150219
0.00158244
0.00167776
0.00179608
0.00192708
0.00208032
0.00224243
0.00242524
0.00261235
0.00281762
0.00302116
0.00324023
0.0034509
0.00367491
0.00388401
0.00410517
0.00430586
0.00451825
0.0047059
0.00490565
0.00507773
0.00526293
0.00541832
0.00558855
0.00572714
0.00588288
0.00600511
0.00614728
0.00625406
0.00638364
0.00647615
0.00659416
0.00667367
0.00678114
0.00684908
0.00694684
0.00700473
0.00709351
0.00714307
0.0072237
0.0072662
0.00733973
0.00737666
0.00744452
0.00747825
0.00754271
0.00758031
0.00765193
0.00771277
2.5698
0.71409
0.270328
0.127417
0.0700736
0.0430186
0.0286131
0.0201995
0.0149256
0.0114277
0.00900386
0.00726031
0.00596957
0.00498805
0.00422691
0.00362465
0.00314142
0.00274786
0.00242383
0.00215438
0.00192824
0.00173755
0.0015754
0.00143757
0.00131999
0.00121981
0.00113494
0.00106327
0.00100452
0.000956852
0.000919212
0.000892762
0.000874315
0.000869091
0.00087399
0.000883122
0.000908673
0.000938107
0.000986658
0.00103729
0.00110858
0.0011807
0.00127513
0.00136733
0.00148358
0.00159406
0.00172919
0.00185489
0.00200477
0.00214134
0.00230109
0.00244356
0.00260811
0.00275154
0.00291634
0.00305645
0.00321784
0.00335138
0.00350685
0.00363168
0.00377958
0.00389461
0.00403404
0.00413895
0.00426945
0.00436454
0.00448588
0.00457186
0.00468398
0.00476185
0.00486492
0.00493578
0.00503025
0.00509541
0.00518223
0.00524355
0.0053252
0.00538682
0.00547299
0.0055522
2.56961
0.713786
0.270163
0.127398
0.0700864
0.0430208
0.0286025
0.0201848
0.0149106
0.011415
0.00899312
0.00725184
0.00596233
0.0049821
0.00422142
0.00361947
0.003136
0.00274167
0.00241659
0.00214513
0.00191682
0.00172256
0.00155666
0.00141333
0.00128956
0.00118133
0.00108717
0.00100409
0.000931599
0.000867318
0.000811438
0.000761702
0.000719263
0.000681261
0.000650671
0.000622856
0.000602701
0.000584416
0.000574125
0.000565924
0.000565328
0.000571883
0.000579241
0.000592339
0.00061541
0.000636555
0.000675916
0.000709118
0.000762597
0.000808815
0.000876867
0.000935992
0.00101825
0.00108967
0.00118485
0.00126718
0.00137324
0.00146424
0.0015787
0.00167565
0.00179555
0.00189562
0.00201793
0.0021186
0.00224047
0.00233978
0.00245876
0.00255538
0.00266954
0.00276275
0.0028709
0.00296035
0.003062
0.00314767
0.0032433
0.00332559
0.00341735
0.00349838
0.00359374
0.00368632
2.56967
0.713703
0.270227
0.127563
0.0702109
0.0430794
0.0286183
0.020181
0.0149
0.0114034
0.00898246
0.00724264
0.00595451
0.00497544
0.00421576
0.00361453
0.00313172
0.00273775
0.00241304
0.00214167
0.00191343
0.00171894
0.00155276
0.00140883
0.00128432
0.00117496
0.00107949
0.000994559
0.000919958
0.000852791
0.000793656
0.000739752
0.000692396
0.000648666
0.000610531
0.000574878
0.000544185
0.000515158
0.000490674
0.000467344
0.000448289
0.000430219
0.000416335
0.000402954
0.000393809
0.000385597
0.000380993
0.000378641
0.000379306
0.000383977
0.000389989
0.000398631
0.000413886
0.000426782
0.000451999
0.000472088
0.000505859
0.000534274
0.000577123
0.00061415
0.000666163
0.000711904
0.000772714
0.000826948
0.000895669
0.000957753
0.00103297
0.00110185
0.00118187
0.00125615
0.00133928
0.00141731
0.00150213
0.00158225
0.00166792
0.00174888
0.00183577
0.00191802
0.00200988
0.00210174
2.56955
0.713457
0.270063
0.127503
0.0701994
0.0430744
0.0286088
0.0201683
0.0148867
0.0113912
0.0089718
0.00723354
0.00594679
0.00496884
0.00421009
0.0036096
0.00312741
0.00273395
0.00240967
0.00213864
0.00191069
0.00171642
0.00155041
0.00140662
0.00128217
0.00117284
0.00107729
0.000992287
0.000917422
0.00085006
0.000790403
0.000736137
0.000687911
0.00064358
0.000604121
0.000567477
0.000534872
0.000504288
0.000477146
0.000451429
0.000428732
0.000407011
0.000388026
0.00036967
0.000353851
0.000338397
0.000325417
0.000312513
0.000302249
0.00029175
0.000284107
0.000275927
0.0002708
0.000265235
0.000262595
0.000260001
0.000260369
0.000261214
0.000264873
0.000268442
0.00027629
0.000283418
0.000295699
0.000307558
0.000324625
0.000341753
0.00036405
0.000386973
0.000414888
0.000443867
0.000477717
0.00051285
0.000552832
0.000593955
0.000640217
0.000687136
0.000739954
0.000793277
0.000854306
0.000918478
2.56946
0.713232
0.269886
0.127379
0.0701249
0.0430305
0.0285801
0.0201473
0.0148702
0.0113779
0.00896085
0.00722448
0.00593913
0.00496237
0.0042045
0.00360479
0.00312316
0.00273025
0.00240633
0.0021357
0.00190798
0.00171404
0.00154817
0.00140465
0.00128026
0.00117118
0.00107562
0.00099084
0.000915911
0.000848751
0.000788962
0.000734881
0.000686448
0.000642271
0.000602521
0.000565979
0.000532982
0.00050242
0.000474756
0.000448945
0.000425554
0.000403569
0.000383646
0.000364784
0.000347715
0.000331438
0.000316746
0.000302643
0.000289957
0.000277725
0.000266757
0.000256171
0.000246699
0.000237601
0.000229478
0.000221743
0.000214912
0.000208478
0.000202949
0.000197788
0.000193508
0.000189711
0.000186711
0.000184444
0.000182851
0.000182331
0.000182541
0.000183969
0.000185984
0.000188954
0.00019378
0.000199215
0.000206746
0.000215064
0.000225809
0.000237516
0.000252144
0.000268118
0.000287936
0.000310478
2.56939
0.713002
0.269685
0.127209
0.0700075
0.0429581
0.0285362
0.0201195
0.014851
0.0113636
0.00894955
0.00721536
0.00593147
0.00495596
0.00419893
0.00360004
0.00311893
0.00272659
0.002403
0.0021328
0.0019053
0.0017117
0.00154596
0.00140271
0.0012784
0.00116955
0.00107403
0.000989454
0.000914525
0.000847554
0.000787739
0.00073383
0.000685349
0.000641331
0.000601512
0.000565117
0.000532028
0.0005016
0.000473819
0.000448126
0.000424587
0.000402699
0.000382589
0.000363796
0.000346486
0.000330238
0.000315237
0.000301103
0.000288025
0.000275663
0.0002642
0.000253338
0.000243246
0.000233666
0.000224751
0.000216273
0.000208383
0.000200867
0.000193884
0.000187218
0.000181049
0.000175146
0.000169723
0.000164521
0.000159806
0.000155266
0.000151243
0.000147369
0.000144026
0.000140826
0.000138174
0.000135718
0.000133815
0.000132185
0.00013114
0.000130472
0.000130683
0.000131153
0.000132591
0.000134882
2.56929
0.71279
0.269473
0.127007
0.0698615
0.0428692
0.0284838
0.0200878
0.0148302
0.0113489
0.00893824
0.00720633
0.00592394
0.00494965
0.00419346
0.00359535
0.00311477
0.00272297
0.00239974
0.00212993
0.00190267
0.00170936
0.00154379
0.00140077
0.00127658
0.00116792
0.00107248
0.000988066
0.000913192
0.000846356
0.000786576
0.000732784
0.000684325
0.000640409
0.0006006
0.000564296
0.000531208
0.000500862
0.000473073
0.000447455
0.000423899
0.00040208
0.000381945
0.000363213
0.000345871
0.000329674
0.000314634
0.000300538
0.000287412
0.000275072
0.000263551
0.000252689
0.000242523
0.000232916
0.000223904
0.000215366
0.000207344
0.000199726
0.000192558
0.000185734
0.00017931
0.000173177
0.000167405
0.000161877
0.000156681
0.00015169
0.000147004
0.000142497
0.000138268
0.000134201
0.000130388
0.000126727
0.000123301
0.000120025
0.000116968
0.000114066
0.000111382
0.000108875
0.000106604
0.000104554
2.56925
0.712648
0.269354
0.126897
0.0697774
0.0428125
0.0284475
0.0200636
0.014813
0.011336
0.00892799
0.00719799
0.00591693
0.00494373
0.00418834
0.00359092
0.00311086
0.00271954
0.00239665
0.00212719
0.00190018
0.00170713
0.00154174
0.00139892
0.00127486
0.00116636
0.00107101
0.000986726
0.000911929
0.000845195
0.000785477
0.000731769
0.000683357
0.000639513
0.000599741
0.000563499
0.00053044
0.000500148
0.000472381
0.000446812
0.000423271
0.000401496
0.000381372
0.00036268
0.000345344
0.000329183
0.000314147
0.000300082
0.000286958
0.000274644
0.000263122
0.000252282
0.000242114
0.000232523
0.000223505
0.00021498
0.000206946
0.000199335
0.000192149
0.000185327
0.000178874
0.000172736
0.000166921
0.000161379
0.000156123
0.000151104
0.000146338
0.000141779
0.000137445
0.000133294
0.000129343
0.000125556
0.000121946
0.000118484
0.00011518
0.000112012
0.000108985
0.000106086
0.000103317
0.000100673
2.56918
0.712508
0.269225
0.126767
0.0696768
0.0427474
0.0284073
0.0200383
0.0147959
0.0113236
0.00891837
0.00719023
0.00591046
0.00493825
0.00418361
0.00358682
0.00310725
0.00271636
0.00239381
0.00212465
0.00189787
0.00170505
0.00153984
0.00139719
0.00127326
0.0011649
0.00106966
0.000985475
0.000910758
0.00084411
0.000784456
0.000730819
0.000682458
0.000638674
0.000598944
0.000562752
0.000529727
0.000499479
0.000471739
0.000446208
0.000422689
0.000400948
0.000380842
0.00036218
0.000344859
0.000328725
0.000313701
0.00029966
0.000286546
0.000274253
0.00026274
0.000251919
0.000241758
0.000232184
0.000223172
0.000214661
0.000206632
0.000199034
0.000191851
0.00018504
0.000178589
0.00017246
0.000166646
0.000161112
0.000155854
0.00015084
0.000146069
0.000141514
0.000137172
0.000133021
0.000129059
0.000125266
0.00012164
0.000118167
0.00011484
0.000111651
0.000108593
0.000105659
0.000102842
0.000100139
2.56915
0.712404
0.26917
0.126732
0.0696464
0.0427219
0.0283872
0.0200225
0.0147833
0.0113133
0.00890995
0.00718323
0.00590454
0.00493321
0.00417926
0.00358304
0.00310392
0.00271342
0.00239118
0.00212231
0.00189575
0.00170314
0.00153809
0.0013956
0.0012718
0.00116355
0.00106841
0.000984321
0.00090968
0.00084311
0.000783516
0.000729944
0.000681632
0.000637901
0.000598211
0.000562064
0.000529071
0.000498862
0.000471149
0.000445651
0.000422155
0.000400444
0.000380356
0.00036172
0.000344415
0.000328303
0.000313292
0.000299272
0.000286169
0.000273894
0.000262391
0.000251586
0.000241434
0.000231873
0.000222869
0.000214371
0.000206349
0.000198762
0.000191586
0.000184785
0.000178339
0.00017222