/*--------------------------------*- C++ -*----------------------------------*\
| =========                 |                                                 |
| \\      /  F ield         | OpenFOAM: The Open Source CFD Toolbox           |
|  \\    /   O peration     | Version:  2312                                  |
|   \\  /    A nd           | Website:  www.openfoam.com                      |
|    \\/     M anipulation  |                                                 |
\*---------------------------------------------------------------------------*/
FoamFile
{
    version     2.0;
    format      ascii;
    arch        "LSB;label=32;scalar=64";
    class       volScalarField;
    location    "4000";
    object      k;
}
// * * * * * * * * * * * * * * * * * * * * * * * * * * * * * * * * * * * * * //

dimensions      [0 2 -2 0 0 0 0];

internalField   nonuniform List<scalar> 
5880
(
9.94338e-05
0.000168948
0.000273381
0.000370368
0.0004271
0.000439732
0.000438513
0.000441433
0.000461831
0.000498279
0.000536962
0.000569227
0.000591244
0.000601288
0.000596683
0.000572614
0.00054143
0.000642915
0.00082331
0.00107176
0.00140516
0.00180842
0.00224349
0.00270798
0.00318341
0.00364932
0.00409183
0.00449711
0.00485683
0.00516341
0.00540992
0.00560035
0.00568885
0.0057231
0.00569573
0.00556952
0.00537147
0.00510329
0.0047683
0.00437434
0.00393009
0.00344601
0.00293353
0.00240945
0.00189485
0.00142277
0.00116971
0.00122852
0.00127405
0.00122806
0.00106736
0.000772434
0.000453334
0.000208595
9.48419e-05
0.000141653
0.000158647
0.000196341
0.000232366
0.000253489
0.000265775
0.000283491
0.000319482
0.000384612
0.000472301
0.000569309
0.000666699
0.000764243
0.000862192
0.000958296
0.00104563
0.00112424
0.00122257
0.00134424
0.00149409
0.00167175
0.00187942
0.00204844
0.00220755
0.00236174
0.00250432
0.00263688
0.0027579
0.00287064
0.00297809
0.00307159
0.00316568
0.0032415
0.00332494
0.00339516
0.0034623
0.00351005
0.00353473
0.00354248
0.00352273
0.00347308
0.00337897
0.00324038
0.00304435
0.00278401
0.00246609
0.00212345
0.00178932
0.00144954
0.0011255
0.000836497
0.000583008
0.000363643
0.000193866
0.000124974
0.00021156
0.000220277
0.000246783
0.000275391
0.000293139
0.000315073
0.000357746
0.000436353
0.000557497
0.000707408
0.000870117
0.00103838
0.00121151
0.00138747
0.00155642
0.00171092
0.00184266
0.00195429
0.00204758
0.0021322
0.00220763
0.00228101
0.00237428
0.0024668
0.0025657
0.00266802
0.0027772
0.00288927
0.00300546
0.00312672
0.00325053
0.00338026
0.00350595
0.00363545
0.00375916
0.00388038
0.00398875
0.00408267
0.00415396
0.00418775
0.00419728
0.00415377
0.00404167
0.00385451
0.00358211
0.00322864
0.00281413
0.0023613
0.00188874
0.00143221
0.00102004
0.000681348
0.000421495
0.000235149
0.000168598
0.000315507
0.000314805
0.000345136
0.000382671
0.00041253
0.000457309
0.000537091
0.000666895
0.000847753
0.0010627
0.00129319
0.00152808
0.00175994
0.00197942
0.00216832
0.00231735
0.00241346
0.00246239
0.00248457
0.00250809
0.00255069
0.00261017
0.00268732
0.0027765
0.00287837
0.00298941
0.00310854
0.00323558
0.00336902
0.00350674
0.00364716
0.00378935
0.00393129
0.00407394
0.00421277
0.00434644
0.00446905
0.00457629
0.00466065
0.00470442
0.00471918
0.00467925
0.00456597
0.00437257
0.00408678
0.00370833
0.00325126
0.00273766
0.00219882
0.00167685
0.00120868
0.000820307
0.000520711
0.000304029
0.000229349
0.000446868
0.00043013
0.000474363
0.00052713
0.000577821
0.000656031
0.000785027
0.000977863
0.00122806
0.00151134
0.00180341
0.00208587
0.002341
0.00255035
0.00267823
0.0027289
0.00273469
0.00271312
0.00270844
0.00273921
0.0027899
0.00286631
0.00295754
0.0030618
0.00317527
0.00329617
0.00342289
0.0035542
0.00368933
0.00382722
0.0039671
0.0041082
0.0042493
0.00438928
0.00452521
0.00465352
0.00476957
0.00486853
0.00494266
0.00497816
0.00498794
0.00493917
0.0048224
0.00462872
0.00434587
0.00396982
0.00350793
0.00297359
0.00240307
0.00184086
0.00133285
0.000912547
0.000590657
0.000360024
0.000298811
0.000593266
0.000570143
0.000643335
0.000719189
0.000798752
0.00092034
0.00111182
0.00138031
0.00170462
0.00204746
0.00237349
0.0026516
0.00284977
0.00293976
0.00295562
0.00290258
0.00287011
0.00285962
0.00287796
0.00293582
0.00301033
0.00310389
0.00320615
0.003317
0.0034328
0.00355287
0.00367615
0.00380227
0.00393063
0.00406064
0.00419159
0.00432248
0.00445186
0.00457776
0.00469769
0.0048084
0.00490599
0.00498552
0.00503858
0.00506115
0.0050624
0.0050043
0.00488653
0.00469901
0.00443767
0.00409026
0.00365075
0.00313336
0.00256171
0.00197489
0.00142636
0.000969105
0.000625772
0.0003925
0.00036613
0.0007381
0.000744495
0.000868006
0.000974698
0.00109273
0.00127108
0.00153657
0.00187952
0.00225758
0.00261607
0.00290873
0.00307497
0.00312836
0.00310168
0.00302335
0.0029843
0.00297225
0.00299247
0.00305021
0.00312835
0.00321789
0.0033172
0.00342098
0.00352903
0.00363923
0.00375192
0.0038664
0.00398253
0.00409978
0.00421758
0.00433503
0.00445095
0.00456381
0.00467161
0.00477204
0.00486246
0.00493966
0.00499966
0.00503338
0.00504451
0.0050301
0.00496722
0.00485884
0.00469361
0.00446079
0.00415564
0.00377152
0.00330486
0.00276084
0.0021617
0.00155907
0.00103551
0.00064462
0.00040579
0.000420881
0.000868089
0.000970823
0.00116546
0.00131041
0.00147684
0.00171956
0.00205166
0.00243769
0.00281098
0.00309879
0.00323271
0.00325921
0.00318989
0.00311164
0.00306921
0.00305828
0.00308349
0.00314185
0.00321886
0.00330551
0.00339808
0.00349463
0.00359306
0.00369327
0.00379489
0.00389804
0.0040025
0.00410801
0.00421404
0.00432002
0.004425
0.00452774
0.00462671
0.00472011
0.00480591
0.00488174
0.00494501
0.00499042
0.00501472
0.0050207
0.00500104
0.00494131
0.00484286
0.00470063
0.00451123
0.00426323
0.00394955
0.00355636
0.00306946
0.00248381
0.0018243
0.00118778
0.000683414
0.000421567
0.000451786
0.000979761
0.00126981
0.0015429
0.00173872
0.00195565
0.00224756
0.00260447
0.00296306
0.00322074
0.00332431
0.00333082
0.00325182
0.00317145
0.00313203
0.00312316
0.00315206
0.0032106
0.00328454
0.00336659
0.00345267
0.00354069
0.00363013
0.00372069
0.00381261
0.00390605
0.00400118
0.00409795
0.00419622
0.0042956
0.00439546
0.00449495
0.00459286
0.00468768
0.00477761
0.00486062
0.00493425
0.00499585
0.00504057
0.00506592
0.00507208
0.00505901
0.00501246
0.00493281
0.00481566
0.00465687
0.0044536
0.00419813
0.0038788
0.00347077
0.00294463
0.00227614
0.00151729
0.000810186
0.000466843
0.000460471
0.00108827
0.00164164
0.00201249
0.00225713
0.00250117
0.00279127
0.0030941
0.00330487
0.00338075
0.00336791
0.00329833
0.00321387
0.00317581
0.0031687
0.00319938
0.00325603
0.00332584
0.00340188
0.00348048
0.00356024
0.00364067
0.00372235
0.00380563
0.00389101
0.00397889
0.00406953
0.00416301
0.0042593
0.00435819
0.00445933
0.00456222
0.00466588
0.00476876
0.00486881
0.00496406
0.00505163
0.00512828
0.00519143
0.00523653
0.00525347
0.00525666
0.00522936
0.00516709
0.00506698
0.0049247
0.00473829
0.00450772
0.00423101
0.0038877
0.0034457
0.00284494
0.00205134
0.00114636
0.00057354
0.000458411
0.00119573
0.00208865
0.00255629
0.00282522
0.00304033
0.00324675
0.0033844
0.00342789
0.00338886
0.00332144
0.00323718
0.00320302
0.00319571
0.00322659
0.00327892
0.00334255
0.00341088
0.00348097
0.00355148
0.00362248
0.00369465
0.00376867
0.00384567
0.0039261
0.00401039
0.00409882
0.00419154
0.00428857
0.00438981
0.00449499
0.00460372
0.00471604
0.00483182
0.00495063
0.00507037
0.00518837
0.00530021
0.00539764
0.00547816
0.00552983
0.00555589
0.00555977
0.00552699
0.00545306
0.00533065
0.00515538
0.00492616
0.00464436
0.00431347
0.00391419
0.00339687
0.00267515
0.00169075
0.000771174
0.000464894
0.00135801
0.00257606
0.0031174
0.00336729
0.00348008
0.00352182
0.00351281
0.00343159
0.00334553
0.00325968
0.00322002
0.00321195
0.00323454
0.00327913
0.00333274
0.0033901
0.00344811
0.00350723
0.00356729
0.00362926
0.003694
0.00376241
0.00383398
0.0039091
0.00398838
0.00407235
0.00416159
0.00425663
0.00435796
0.00446589
0.00458036
0.00470172
0.00482963
0.00496322
0.00510164
0.00524388
0.00538892
0.00553648
0.0056787
0.00580403
0.00589592
0.00593934
0.0059518
0.00592925
0.00585368
0.00571407
0.00550386
0.00521774
0.00485724
0.00443095
0.00393036
0.00329354
0.0023994
0.0011516
0.000529204
0.00170689
0.00305676
0.00360146
0.00376932
0.00377518
0.00367311
0.00353231
0.00340157
0.00328929
0.00323667
0.00321923
0.00322377
0.00325421
0.0032951
0.00334084
0.00338958
0.00344073
0.00349216
0.00354384
0.00359636
0.0036502
0.00370566
0.0037635
0.00382466
0.00389004
0.00396065
0.00403766
0.00412235
0.00421607
0.00432023
0.00443615
0.00456408
0.00470421
0.00485646
0.00502012
0.0051937
0.00537469
0.00555949
0.00574603
0.00593334
0.00611993
0.00627938
0.0063769
0.00641534
0.00641953
0.00635327
0.00620648
0.00596181
0.00560823
0.00514326
0.00457893
0.00393744
0.0031471
0.00204917
0.00103733
0.00213276
0.00343777
0.00394886
0.00405697
0.00394425
0.00372004
0.0035159
0.00335736
0.00326269
0.00322311
0.00321176
0.00321946
0.00324757
0.00328299
0.00332089
0.00335904
0.00339555
0.00343017
0.00346292
0.00349374
0.0035231
0.00355305
0.00358513
0.00362078
0.00366159
0.00370927
0.00376569
0.00383277
0.00391247
0.00400669
0.00411728
0.00424589
0.00439389
0.00456217
0.00475091
0.00495938
0.00518575
0.00542682
0.00567792
0.00593263
0.00618294
0.00643041
0.0066701
0.00685338
0.00694497
0.0069769
0.0069368
0.00678798
0.00650639
0.00607158
0.00547219
0.00472484
0.00391262
0.00311602
0.00217636
0.00255319
0.00361011
0.0040556
0.00412272
0.00395091
0.00370026
0.00347466
0.00331756
0.00323538
0.00320068
0.00319103
0.00319623
0.00321486
0.00323623
0.00325555
0.00326941
0.00327727
0.00328081
0.00328169
0.00328079
0.00327901
0.00327736
0.00327685
0.00327927
0.00328707
0.0033024
0.00332776
0.00336581
0.00341964
0.00349234
0.003587
0.00370668
0.00385416
0.00403175
0.00424102
0.00448251
0.00475541
0.00505729
0.0053839
0.0057287
0.00608277
0.00643482
0.00677257
0.00710133
0.00737245
0.00754507
0.00761601
0.00760402
0.00744618
0.00711049
0.00656372
0.00578449
0.0048214
0.00412326
0.00386427
0.00294958
0.0035846
0.00399996
0.00406314
0.00389551
0.00364113
0.00341783
0.00327115
0.00319198
0.00315469
0.00313846
0.00313219
0.00312899
0.00312303
0.00311185
0.00309557
0.00307365
0.00304609
0.00301356
0.00297683
0.0029369
0.00289514
0.0028533
0.00281359
0.00277863
0.00275139
0.00273795
0.00273496
0.00274986
0.0027878
0.00285251
0.00294874
0.00308117
0.0032543
0.00347203
0.00373713
0.00405061
0.00441136
0.00481681
0.00526074
0.0057335
0.00622228
0.00671114
0.00718097
0.00762877
0.00799879
0.00826387
0.00837866
0.00837907
0.00818141
0.00773952
0.00700245
0.00594733
0.00521806
0.00541481
0.00333708
0.00349315
0.00384213
0.0038991
0.00375424
0.00352846
0.00332832
0.00319008
0.00310729
0.00305942
0.0030288
0.00300414
0.00297889
0.00294881
0.00291186
0.00286731
0.00281482
0.00275453
0.00268702
0.00261322
0.00253446
0.00245253
0.00236964
0.00228837
0.00221161
0.00214243
0.00208402
0.00203913
0.00201571
0.0020094
0.00202622
0.00207732
0.00216907
0.00230937
0.00250696
0.0027701
0.00310367
0.00350383
0.0039776
0.00452033
0.00512093
0.00576433
0.00643177
0.00709956
0.00774008
0.00833415
0.00883196
0.0091862
0.009339
0.00931419
0.00901013
0.00835582
0.00727328
0.00624103
0.00667962
0.0036888
0.00324214
0.00351463
0.0035877
0.0035032
0.00334278
0.00318424
0.00306296
0.00298058
0.00292451
0.0028813
0.00284123
0.00279825
0.00274877
0.00269095
0.00262397
0.00254768
0.00246244
0.00236913
0.00226912
0.00216431
0.0020571
0.0019503
0.00184695
0.00175012
0.00166266
0.00158708
0.00152541
0.00147955
0.00145371
0.00144574
0.00145785
0.00149651
0.00156665
0.001678
0.00184681
0.00209745
0.00246307
0.0029532
0.00356758
0.00428651
0.00508953
0.0059572
0.00685787
0.00775869
0.00861587
0.00938156
0.0100122
0.0104379
0.0106001
0.0104721
0.00993159
0.00886568
0.00754357
0.00780965
0.00393445
0.00301369
0.00320172
0.0032872
0.00325662
0.00315539
0.00303511
0.00292742
0.00284249
0.00277669
0.00272189
0.00267028
0.00261617
0.00255583
0.00248727
0.00240959
0.00232282
0.00222763
0.00212546
0.00201843
0.00190921
0.0018007
0.00169596
0.00159792
0.00150914
0.00143145
0.00136568
0.00131272
0.00127343
0.00124941
0.00124085
0.00124442
0.00126126
0.00129382
0.00134804
0.00143446
0.00157146
0.00178921
0.00213265
0.00265171
0.0033796
0.00430269
0.00537018
0.00654008
0.00774774
0.00892258
0.0100216
0.0109843
0.0117422
0.012191
0.0122782
0.0118838
0.010849
0.00915555
0.00885801
0.00369275
0.00263812
0.00277644
0.00289447
0.00292036
0.00288978
0.00282517
0.00275256
0.00268508
0.00262555
0.00257148
0.00251865
0.00246363
0.00240381
0.00233769
0.00226481
0.0021857
0.00210195
0.00201591
0.00192805
0.00183958
0.00175204
0.00166717
0.00158651
0.00151137
0.00144263
0.00138247
0.00133218
0.00129235
0.00126308
0.00124472
0.00123749
0.00124118
0.00125662
0.00128876
0.00134332
0.00143244
0.00157836
0.00181812
0.00221635
0.00286456
0.00380657
0.00501195
0.00638955
0.00786941
0.00940823
0.0109164
0.0123023
0.0134688
0.014307
0.0146838
0.0144686
0.0134597
0.0113904
0.00995098
0.00349405
0.00240146
0.00246845
0.0026418
0.00272736
0.00274109
0.00271795
0.00267288
0.00261341
0.00255065
0.00249299
0.00244118
0.00239068
0.00233921
0.00228552
0.00222873
0.00216863
0.0021045
0.0020346
0.00196091
0.0018859
0.00181124
0.00173875
0.00166977
0.00160579
0.00154819
0.00149786
0.00145532
0.00142122
0.00139596
0.0013797
0.00137337
0.00137636
0.0013886
0.00141493
0.00145886
0.00152618
0.00163123
0.00180982
0.00214118
0.00272869
0.00365593
0.004942
0.00655255
0.00840448
0.0103892
0.0124016
0.01433
0.0160471
0.017403
0.018218
0.0182684
0.0172722
0.0147263
0.0113623
0.00181296
0.00164869
0.00176795
0.0019462
0.00211764
0.00226081
0.00236813
0.00244246
0.00248959
0.00251518
0.00251785
0.00250228
0.00247287
0.00243482
0.00239139
0.00234353
0.00229255
0.00223879
0.00218403
0.00212859
0.00207321
0.00201878
0.00196637
0.001917
0.00187164
0.00183142
0.00179707
0.00176934
0.00174876
0.00173603
0.00173569
0.00174272
0.00176385
0.00181229
0.00189091
0.00201029
0.00218632
0.00244291
0.00281528
0.0033551
0.00413473
0.00523211
0.00668973
0.00849521
0.0106016
0.0129484
0.0154575
0.0180147
0.0204538
0.022553
0.0240303
0.0245252
0.0236222
0.0203995
0.0136463
0.00116404
0.00153502
0.00186304
0.00217058
0.00245499
0.00270803
0.00292637
0.00311051
0.00326124
0.00338373
0.003479
0.00354696
0.00359079
0.00361497
0.00362478
0.00362323
0.00361798
0.00360804
0.00359743
0.00358828
0.00358212
0.00358182
0.00358451
0.00359561
0.00361395
0.00364327
0.00368434
0.00373876
0.00380852
0.00389659
0.00400451
0.00414106
0.00428801
0.00456682
0.00498214
0.00554105
0.00625139
0.00712117
0.00815571
0.0093549
0.0107168
0.0122414
0.0139389
0.015843
0.0180158
0.0205391
0.0234692
0.0267563
0.0301868
0.0333994
0.0358851
0.0369589
0.0358337
0.0308332
0.0173948
0.00376827
0.00881776
0.0126163
0.015423
0.0175629
0.0191901
0.0204291
0.0213672
0.02207
0.0225896
0.0229695
0.0232461
0.0234429
0.0235806
0.0236697
0.0237262
0.0237588
0.0237797
0.0237958
0.023816
0.0238461
0.0238927
0.0239597
0.0240517
0.0241714
0.0243212
0.0245031
0.0247172
0.0249673
0.0252585
0.0255937
0.0259753
0.0263947
0.0268036
0.0272052
0.0276031
0.0280015
0.028406
0.0288252
0.0292728
0.0297724
0.0303653
0.0311234
0.0321651
0.0336563
0.0357758
0.0386251
0.0421398
0.0460646
0.0499503
0.0531418
0.054739
0.0536443
0.0476119
0.0239014
0.121297
0.0606343
0.0401075
0.0312053
0.0266498
0.0239745
0.0222576
0.021019
0.0201186
0.0194216
0.0188708
0.0184315
0.0180803
0.0177889
0.0175478
0.0173315
0.0171482
0.0169763
0.0168206
0.0166733
0.0165381
0.0164086
0.0162891
0.0161726
0.0160667
0.0159614
0.0158665
0.015771
0.015685
0.0155974
0.0155194
0.0154388
0.0153678
0.0152933
0.0152284
0.0151591
0.0150993
0.0150349
0.0149794
0.0149194
0.0148678
0.0148117
0.0147633
0.0147107
0.0146653
0.014616
0.0145734
0.0145267
0.0144867
0.0144423
0.0144048
0.0143628
0.0143272
0.0142875
0.0142537
0.0142162
0.0141838
0.0141485
0.0141172
0.014084
0.0140536
0.0140226
0.0139928
0.0139639
0.0139346
0.0139076
0.0138787
0.0138536
0.0138246
0.0138014
0.0137719
0.0137505
0.0137197
0.0136998
0.0136665
0.013646
0.0136094
0.0135801
0.0135066
0.0135567
0.117782
0.05143
0.0294111
0.0205204
0.0164529
0.0144331
0.0134893
0.0130337
0.0130396
0.013124
0.0133198
0.0135874
0.0138519
0.0140952
0.0142976
0.0144567
0.0145977
0.0146854
0.0147534
0.0147993
0.0148296
0.0148467
0.0148512
0.0148486
0.0148418
0.0148265
0.0148115
0.0147881
0.0147663
0.0147385
0.0147141
0.0146835
0.0146577
0.0146251
0.0145989
0.0145648
0.0145388
0.0145042
0.0144779
0.0144441
0.0144177
0.0143843
0.0143581
0.0143256
0.0142998
0.0142683
0.0142429
0.0142119
0.0141874
0.014157
0.0141341
0.0141039
0.0140822
0.0140526
0.0140318
0.0140029
0.013983
0.0139548
0.0139356
0.0139083
0.0138897
0.0138633
0.0138451
0.0138197
0.0138017
0.0137773
0.0137598
0.0137362
0.013719
0.0136963
0.0136793
0.0136579
0.0136402
0.0136213
0.0136009
0.0135858
0.0135636
0.0135414
0.013551
0.0135487
0.11994
0.0527518
0.0292969
0.0191579
0.014132
0.0114191
0.00992058
0.00909971
0.00869388
0.00862033
0.00867907
0.00882535
0.00912679
0.00946822
0.00982702
0.0101772
0.0105195
0.0108275
0.011105
0.0113516
0.0115689
0.0117599
0.0119264
0.012071
0.0121988
0.0123085
0.0124085
0.0124898
0.0125645
0.0126263
0.012684
0.0127298
0.0127744
0.0128076
0.0128423
0.0128653
0.0128924
0.0129076
0.012928
0.0129383
0.0129528
0.0129586
0.0129687
0.0129714
0.0129775
0.0129782
0.0129805
0.0129792
0.0129792
0.0129763
0.0129754
0.0129702
0.0129685
0.0129615
0.0129592
0.012951
0.012948
0.0129387
0.0129353
0.0129252
0.0129213
0.0129105
0.0129063
0.012895
0.0128905
0.0128787
0.0128742
0.0128619
0.0128574
0.0128449
0.0128405
0.0128281
0.0128236
0.0128118
0.0128065
0.0127975
0.0127895
0.0127852
0.0128045
0.0128024
0.120583
0.0536819
0.0299439
0.0193933
0.0139213
0.0107635
0.00881993
0.00759178
0.00679679
0.00632105
0.00605726
0.00594592
0.00597521
0.00606039
0.00625471
0.00651429
0.00681554
0.00714039
0.00747578
0.00781204
0.00813894
0.00845143
0.00874564
0.00901859
0.00927262
0.00950376
0.00971947
0.00991317
0.0100927
0.0102534
0.0104038
0.0105369
0.0106631
0.010773
0.0108795
0.0109702
0.0110606
0.0111353
0.0112123
0.011275
0.0113391
0.0113921
0.0114464
0.0114909
0.0115373
0.0115744
0.0116144
0.0116447
0.01168
0.0117039
0.011736
0.0117543
0.0117835
0.0117974
0.0118235
0.0118345
0.0118572
0.011866
0.0118857
0.0118926
0.0119097
0.011915
0.0119296
0.0119336
0.0119462
0.011949
0.01196
0.0119616
0.0119713
0.0119721
0.0119807
0.0119808
0.0119887
0.0119884
0.0119956
0.011996
0.0120027
0.0120084
0.0120321
0.0120491
0.120686
0.0539291
0.0302368
0.0196481
0.0140645
0.0107687
0.0086591
0.00723322
0.00623851
0.00552502
0.00502881
0.00466908
0.00444866
0.00430014
0.00425655
0.00427863
0.00434054
0.00447364
0.0046562
0.00487767
0.00512634
0.00539731
0.00568336
0.00597576
0.0062711
0.00656002
0.00684392
0.00711457
0.0073754
0.0076194
0.00785322
0.00806886
0.00827577
0.00846415
0.00864611
0.00880965
0.00896918
0.009111
0.00925029
0.00937411
0.00949537
0.00960306
0.00970949
0.00980291
0.00989708
0.00997782
0.0100619
0.0101311
0.0102071
0.0102657
0.0103353
0.0103845
0.0104485
0.0104901
0.0105487
0.0105842
0.0106376
0.0106678
0.0107171
0.0107423
0.0107879
0.0108088
0.0108508
0.0108689
0.0109069
0.0109227
0.0109572
0.010971
0.0110025
0.0110146
0.0110437
0.0110543
0.0110815
0.0110907
0.0111168
0.0111254
0.0111518
0.0111625
0.0111984
0.0112279
0.12069
0.0539621
0.0303045
0.0197334
0.0141536
0.0108336
0.00868875
0.00720935
0.00614895
0.00535258
0.00475469
0.00428564
0.00393108
0.00365159
0.00344594
0.00329551
0.00320071
0.00313994
0.00314245
0.00317092
0.0032274
0.00333018
0.00346535
0.00362835
0.00381673
0.00402419
0.0042511
0.00448831
0.00473718
0.00498713
0.00524184
0.00549004
0.0057384
0.00597496
0.00620928
0.0064288
0.00664515
0.00684571
0.00704266
0.00722424
0.00740252
0.00756527
0.00772648
0.0078714
0.00801744
0.00814577
0.00827861
0.00839163
0.00851306
0.00861208
0.00872359
0.00881026
0.00891271
0.00898886
0.00908305
0.00915012
0.00923691
0.00929555
0.00937638
0.00942716
0.00950291
0.00954653
0.00961751
0.00965517
0.00972175
0.00975418
0.00981646
0.00984505
0.00990302
0.0099287
0.00998248
0.0100056
0.0100559
0.0100768
0.0101247
0.0101441
0.0101916
0.0102118
0.0102666
0.0103018
0.120687
0.0539483
0.0302968
0.0197357
0.014167
0.0108542
0.00871059
0.00722535
0.0061519
0.00533896
0.00471302
0.00421218
0.00381325
0.00348346
0.00321804
0.00299427
0.00281891
0.00266898
0.00255996
0.00247067
0.00241681
0.00237493
0.00237565
0.00238868
0.00242044
0.00248185
0.00256691
0.00267135
0.00279944
0.00294297
0.00310743
0.0032825
0.00347539
0.00367307
0.00388408
0.00409403
0.00431276
0.0045254
0.00474323
0.0049508
0.00516193
0.0053591
0.00556003
0.0057438
0.00593296
0.00610195
0.00627896
0.00643292
0.00659798
0.00673735
0.00689085
0.00701664
0.00715903
0.00727241
0.00740454
0.00750651
0.00762948
0.00772059
0.00783569
0.00791665
0.00802482
0.0080965
0.00819821
0.00826162
0.00835744
0.0084135
0.0085038
0.00855339
0.00863884
0.00868274
0.00876375
0.00880278
0.00887949
0.00891526
0.00898779
0.00902149
0.00909162
0.00912636
0.00919995
0.00925406
0.120681
0.0539357
0.0302878
0.0197297
0.0141637
0.0108546
0.0087125
0.00722975
0.00615547
0.00534193
0.00471138
0.00420553
0.00379669
0.00345554
0.00317289
0.00293043
0.00272709
0.00254989
0.00240061
0.00227061
0.00216173
0.00206908
0.00199189
0.00193324
0.00188438
0.00185415
0.00183348
0.00183544
0.00184443
0.00186837
0.00191049
0.00196477
0.00203942
0.00212366
0.00222917
0.00234157
0.00247532
0.00261252
0.00277032
0.00292715
0.00310319
0.003273
0.00346066
0.00363656
0.00382941
0.00400528
0.00419793
0.00436915
0.00455764
0.00472119
0.00490284
0.00505705
0.00523041
0.00537436
0.00553892
0.00567221
0.00582808
0.00595054
0.00609811
0.00620994
0.00634961
0.00645137
0.00658344
0.00667582
0.00680068
0.00688449
0.0070025
0.00707854
0.00719009
0.00725945
0.0073647
0.00742857
0.00752757
0.00758738
0.00768056
0.00773801
0.00782649
0.0078859
0.00797487
0.00805346
0.120677
0.0539168
0.0302649
0.0197077
0.0141465
0.0108434
0.00870483
0.00722542
0.00615217
0.00534047
0.00470963
0.00420453
0.00379401
0.00345226
0.00316584
0.00292081
0.00271083
0.00252787
0.00236845
0.00222801
0.00210418
0.00199468
0.00189749
0.00181166
0.00173621
0.00166946
0.00161266
0.00156252
0.00152372
0.00148917
0.00146649
0.00144856
0.00144286
0.00144571
0.0014555
0.00147272
0.00150718
0.00154353
0.00160085
0.00165763
0.0017383
0.00181568
0.00191945
0.00201643
0.00214137
0.00225591
0.00239876
0.00252759
0.00268427
0.00282314
0.00298896
0.00313339
0.00330383
0.00344963
0.00362091
0.00376458
0.00393385
0.00407284
0.00423819
0.00437084
0.004531
0.00465646
0.00481059
0.00492856
0.00507612
0.00518672
0.00532729
0.00543099
0.00556417
0.00566187
0.00578735
0.00588005
0.00599775
0.00608661
0.00619691
0.00628352
0.00638789
0.00647569
0.00658104
0.00668332
0.120672
0.0539037
0.0302514
0.0196939
0.0141337
0.0108334
0.00869669
0.00721929
0.00614679
0.00533638
0.00470585
0.00420164
0.00379115
0.00344992
0.00316323
0.00291813
0.00270747
0.00252353
0.00236278
0.00222006
0.00209387
0.00198027
0.00187912
0.00178695
0.00170472
0.00162903
0.00156162
0.00149918
0.00144385
0.00139277
0.00134768
0.00130672
0.00127093
0.00123959
0.00121331
0.00119099
0.00117378
0.00116197
0.00115427
0.0011545
0.00116016
0.00116762
0.00118894
0.00120716
0.00124546
0.00127624
0.00133168
0.00137789
0.00145074
0.0015125
0.0016027
0.00167977
0.00178627
0.00187766
0.00199845
0.00210217
0.00223468
0.0023479
0.00248914
0.0026087
0.00275543
0.00287834
0.00302745
0.00315122
0.00329994
0.00342278
0.00356878
0.00368965
0.00383108
0.00394953
0.00408519
0.00420107
0.00433041
0.00444376
0.00456709
0.00467828
0.00479755
0.00490836
0.00503075
0.00515239
0.120669
0.0538882
0.0302333
0.0196744
0.0141166
0.0108206
0.00868714
0.00721212
0.00614097
0.00533152
0.00470158
0.00419789
0.00378777
0.00344686
0.00316046
0.00291552
0.00270508
0.00252111
0.00236044
0.00221746
0.00209109
0.00197693
0.00187519
0.00178206
0.00169859
0.0016213
0.00155179
0.00148677
0.00142826
0.00137299
0.00132339
0.00127606
0.00123396
0.00119326
0.00115772
0.00112282
0.0010932
0.00106349
0.00103964
0.00101473
0.000996941
0.000976897
0.000964961
0.000950472
0.000944383
0.000936692
0.000936394
0.000939278
0.000945093
0.000953823
0.000971197
0.000986358
0.00101647
0.00104011
0.00108278
0.00111814
0.00117311
0.00122077
0.00128861
0.00134873
0.00142929
0.00150163
0.00159407
0.00167785
0.00178055
0.00187454
0.00198528
0.00208782
0.00220417
0.00231332
0.00243299
0.00254669
0.00266789
0.00278419
0.00290602
0.00302346
0.00314658
0.00326565
0.00339469
0.00352469
0.120666
0.0538752
0.0302211
0.0196626
0.0141057
0.0108113
0.00867957
0.00720596
0.0061358
0.00532707
0.00469763
0.00419433
0.00378452
0.00344386
0.00315769
0.00291293
0.00270268
0.00251883
0.0023583
0.0022154
0.00208913
0.00197499
0.00187326
0.00178006
0.00169652
0.00161901
0.0015493
0.00148384
0.00142492
0.00136892
0.00131859
0.00127014
0.00122679
0.00118449
0.00114692
0.00110973
0.00107704
0.00104417
0.00101568
0.000986595
0.000961784
0.00093615
0.000914641
0.000892245
0.000873821
0.000854552
0.000839203
0.00082303
0.000811184
0.000798027
0.000789704
0.000780123
0.000775404
0.000770182
0.000769331
0.000770259
0.000773306
0.000778543
0.000788963
0.000799189
0.000817272
0.000834987
0.000860699
0.000886832
0.000921023
0.000956487
0.000999832
0.00104532
0.00109822
0.00115399
0.00121668
0.00128253
0.00135498
0.00143029
0.00151235
0.0015964
0.00168815
0.00178142
0.00188495
0.00199339
0.120662
0.0538625
0.0302099
0.0196534
0.0140976
0.010804
0.00867321
0.00720049
0.00613101
0.00532289
0.00469384
0.00419094
0.00378137
0.00344101
0.00315499
0.00291048
0.0027003
0.00251668
0.00235618
0.00221349
0.00208719
0.00197327
0.00187148
0.00177849
0.00169483
0.00161754
0.00154765
0.00148242
0.00142322
0.00136746
0.00131673
0.00126853
0.00122462
0.00118254
0.00114421
0.00110718
0.00107346
0.00104064
0.0010108
0.000981541
0.000954991
0.000928783
0.000905073
0.000881515
0.000860293
0.000839077
0.000820071
0.000800974
0.000783977
0.000766878
0.000751719
0.00073655
0.000723147
0.000709874
0.00069825
0.000686877
0.000677242
0.000667761
0.000660145
0.000652901
0.000647459
0.000642815
0.000639893
0.000638231
0.000638832
0.000640178
0.000644036
0.000649189
0.000657432
0.000667338
0.000680598
0.000695906
0.00071502
0.00073654
0.000762471
0.000791167
0.000825142
0.000862531
0.000906865
0.000957026
0.120659
0.0538504
0.0301995
0.0196459
0.0140913
0.0107983
0.00866779
0.00719554
0.00612643
0.00531882
0.00469007
0.0041876
0.00377822
0.00343821
0.00315227
0.00290807
0.00269791
0.00251457
0.00235404
0.00221163
0.00208526
0.0019716
0.0018697
0.00177699
0.00169317
0.00161617
0.00154609
0.00148117
0.00142175
0.00136629
0.00131531
0.00126742
0.00122322
0.00118145
0.0011428
0.00110607
0.00107199
0.00103944
0.0010092
0.000980157
0.000953155
0.000927092
0.000902854
0.000879344
0.000857481
0.000836184
0.000816376
0.000797017
0.000779002
0.000761362
0.000744928
0.000728824
0.000713805
0.000699087
0.000685358
0.000671905
0.000659374
0.000647103
0.000635705
0.000624551
0.000614266
0.000604193
0.000595036
0.000586042
0.000578066
0.000570225
0.000563501
0.000556876
0.000551478
0.000546268
0.000542382
0.000538805
0.00053668
0.000535027
0.00053508
0.000536372
0.00053843
0.00054218
0.000548466
0.000556892
0.120657
0.0538402
0.0301908
0.0196406
0.0140871
0.010794
0.00866317
0.00719099
0.00612203
0.0053148
0.00468631
0.00418423
0.00377503
0.00343536
0.00314954
0.00290562
0.00269552
0.00251243
0.00235192
0.00220973
0.00208334
0.0019699
0.00186795
0.00177545
0.00169157
0.00161477
0.00154461
0.00147987
0.00142036
0.00136509
0.00131401
0.00126629
0.00122199
0.00118039
0.00114163
0.00110505
0.00107087
0.00103847
0.00100811
0.000979204
0.000952075
0.000926141
0.000901762
0.000878365
0.000856345
0.000835138
0.000815154
0.000795851
0.000777635
0.000760002
0.00074333
0.000727169
0.000711857
0.000697002
0.000682895
0.000669204
0.000656176
0.000643526
0.000631475
0.00061976
0.000608602
0.000597734
0.000587402
0.00057731
0.00056775
0.000558381
0.000549551
0.000540871
0.000532737
0.000524729
0.000517276
0.000509942
0.00050317
0.00049654
0.000490471
0.000484622
0.000479347
0.000474359
0.000470033
0.000466243
0.120655
0.0538308
0.0301812
0.0196331
0.0140811
0.0107888
0.00865831
0.00718653
0.00611789
0.00531104
0.00468282
0.00418107
0.00377208
0.00343267
0.00314699
0.00290328
0.00269328
0.00251038
0.00234992
0.00220789
0.00208154
0.00196824
0.00186631
0.00177394
0.00169006
0.00161338
0.00154322
0.00147859
0.00141907
0.00136389
0.0013128
0.00126517
0.00122085
0.00117934
0.00114056
0.00110406
0.00106985
0.00103752
0.00100713
0.000978306
0.000951138
0.000925281
0.000900858
0.000877536
0.000855467
0.000834331
0.000814295
0.000795057
0.000776786
0.000759207
0.000742479
0.000726359
0.000710986
0.000696156
0.000681981
0.000668296
0.000655187
0.000642521
0.000630366
0.00061861
0.000607315
0.000596375
0.000585857
0.000575653
0.000565841
0.000556303
0.000547136
0.000538206
0.000529628
0.00052126
0.000513221
0.000505376
0.000497836
0.000490482
0.000483408
0.000476522
0.000469893
0.000463463
0.00045728
0.000451324
0.120653
0.0538232
0.0301732
0.0196274
0.0140765
0.0107845
0.00865418
0.00718258
0.00611416
0.00530762
0.00467966
0.00417819
0.0037694
0.00343021
0.00314468
0.00290115
0.00269125
0.00250849
0.00234811
0.0022062
0.0020799
0.00196671
0.00186482
0.00177254
0.00168869
0.00161209
0.00154194
0.00147739
0.00141788
0.00136277
0.00131169
0.00126412
0.00121981
0.00117835
0.00113957
0.00110312
0.00106891
0.00103663
0.00100624
0.000977461
0.000950284
0.000924474
0.000900038
0.000876764
0.000854678
0.000833589
0.000813534
0.00079434
0.000776051
0.000758511
0.000741767
0.00072568
0.000710294
0.00069549
0.000681305
0.000667639
0.000654521
0.000641868
0.000629703
0.000617955
0.000606645
0.000595709
0.000585169
0.000574965
0.000565121
0.000555578
0.000546364
0.000537422
0.000528781
0.000520387
0.000512266
0.000504374
0.00049673
0.000489298
0.00048209
0.000475082
0.000468277
0.00046166
0.000455231
0.000448985
0.120652
0.0538172
0.0301653
0.0196199
0.0140701
0.0107791
0.00864956