/*--------------------------------*- C++ -*----------------------------------*\
| =========                 |                                                 |
| \\      /  F ield         | OpenFOAM: The Open Source CFD Toolbox           |
|  \\    /   O peration     | Version:  2312                                  |
|   \\  /    A nd           | Website:  www.openfoam.com                      |
|    \\/     M anipulation  |                                                 |
\*---------------------------------------------------------------------------*/
FoamFile
{
    version     2.0;
    format      ascii;
    arch        "LSB;label=32;scalar=64";
    class       volScalarField;
    location    "4000";
    object      nut;
}
// * * * * * * * * * * * * * * * * * * * * * * * * * * * * * * * * * * * * * //

dimensions      [0 2 -1 0 0 0 0];

internalField   nonuniform List<scalar> 
5880
(
1.76188e-06
2.29779e-06
2.92213e-06
3.4013e-06
3.65253e-06
3.70593e-06
3.7001e-06
3.71358e-06
3.79782e-06
3.9448e-06
4.09505e-06
4.21626e-06
4.29718e-06
4.33385e-06
4.3173e-06
4.22759e-06
4.11226e-06
4.48234e-06
5.07229e-06
5.78689e-06
6.62596e-06
7.51669e-06
8.37204e-06
9.19774e-06
9.97234e-06
1.06771e-05
1.13061e-05
1.18531e-05
1.23197e-05
1.27046e-05
1.29952e-05
1.32591e-05
1.33024e-05
1.33782e-05
1.33376e-05
1.3192e-05
1.29556e-05
1.26274e-05
1.22063e-05
1.1691e-05
1.10815e-05
1.03766e-05
9.57396e-06
8.67674e-06
7.69462e-06
6.66759e-06
6.04566e-06
6.19578e-06
6.30951e-06
6.19462e-06
5.77511e-06
4.91305e-06
3.76389e-06
2.55322e-06
1.72157e-06
4.8579e-06
4.27429e-06
4.34822e-06
4.35926e-06
4.27656e-06
4.37144e-06
4.80477e-06
5.76112e-06
7.38446e-06
9.32607e-06
1.12679e-05
1.30283e-05
1.46518e-05
1.61318e-05
1.7371e-05
1.81143e-05
1.80188e-05
1.68305e-05
1.57093e-05
1.495e-05
1.4479e-05
1.44478e-05
1.41889e-05
1.40208e-05
1.40246e-05
1.41354e-05
1.43582e-05
1.46708e-05
1.5084e-05
1.57388e-05
1.62033e-05
1.7167e-05
1.80274e-05
1.92973e-05
2.04882e-05
2.20385e-05
2.37082e-05
2.55571e-05
2.76746e-05
3.00065e-05
3.25785e-05
3.5211e-05
3.79366e-05
4.04668e-05
4.23916e-05
4.30055e-05
3.93868e-05
3.08828e-05
2.23907e-05
1.54632e-05
1.03248e-05
7.28186e-06
5.30356e-06
3.82736e-06
4.5647e-06
5.93598e-06
8.0194e-06
9.96267e-06
1.14301e-05
1.16534e-05
1.23004e-05
1.41243e-05
1.74384e-05
2.18623e-05
2.60708e-05
2.93727e-05
3.17667e-05
3.36614e-05
3.50456e-05
3.55401e-05
3.50303e-05
3.35159e-05
3.12783e-05
2.92031e-05
2.77442e-05
2.6547e-05
2.59597e-05
2.64224e-05
2.71864e-05
2.83777e-05
2.99146e-05
3.18426e-05
3.41652e-05
3.67086e-05
3.97864e-05
4.28993e-05
4.68003e-05
5.06481e-05
5.49588e-05
5.91859e-05
6.3937e-05
6.87461e-05
7.37483e-05
7.86678e-05
8.30303e-05
8.7469e-05
9.10627e-05
9.33072e-05
9.40065e-05
9.25641e-05
8.82692e-05
7.99949e-05
6.76897e-05
5.38634e-05
3.98738e-05
2.65702e-05
1.67462e-05
1.05567e-05
6.80919e-06
5.30184e-06
7.24832e-06
1.10858e-05
1.68481e-05
2.28339e-05
2.61198e-05
2.91142e-05
3.24047e-05
3.65352e-05
4.13595e-05
4.56088e-05
4.86059e-05
5.03167e-05
5.08186e-05
5.03966e-05
4.91564e-05
4.74157e-05
4.53496e-05
4.36003e-05
4.2213e-05
4.16521e-05
4.27358e-05
4.49007e-05
4.78155e-05
5.14139e-05
5.56305e-05
6.03789e-05
6.55025e-05
7.12006e-05
7.71344e-05
8.33884e-05
8.95939e-05
9.60277e-05
0.000102145
0.00010827
0.000114102
0.000119845
0.000125112
0.000129904
0.000134079
0.000136497
0.000138521
0.00013884
0.000137027
0.00013324
0.000127079
0.000118545
0.000107311
9.35398e-05
7.83144e-05
6.23979e-05
4.6071e-05
3.09815e-05
1.94555e-05
1.16995e-05
6.18366e-06
8.62739e-06
1.41417e-05
2.4002e-05
3.4645e-05
4.14635e-05
4.70263e-05
5.09934e-05
5.4492e-05
5.83263e-05
6.15886e-05
6.36748e-05
6.44145e-05
6.39603e-05
6.28376e-05
6.10266e-05
5.89254e-05
5.80989e-05
5.67721e-05
5.81578e-05
6.26152e-05
6.71806e-05
7.31216e-05
7.964e-05
8.68727e-05
9.4238e-05
0.000102044
0.000110006
0.000117809
0.000125453
0.000132862
0.000139849
0.000146454
0.000152455
0.000157988
0.000162848
0.000166961
0.000170079
0.000172104
0.000172779
0.000171504
0.000170335
0.000166617
0.000160825
0.000153412
0.000144084
0.00013305
0.000120395
0.000106183
9.11316e-05
7.55504e-05
5.94173e-05
4.30822e-05
2.83298e-05
1.62307e-05
7.05822e-06
9.94733e-06
1.83247e-05
3.36225e-05
4.80059e-05
5.69173e-05
6.24628e-05
6.57796e-05
6.92316e-05
7.28422e-05
7.56094e-05
7.69762e-05
7.69481e-05
7.56409e-05
7.41831e-05
7.34753e-05
7.07892e-05
7.26358e-05
7.78544e-05
8.40339e-05
9.21794e-05
0.000100489
0.000109867
0.000118938
0.000128506
0.00013773
0.000146742
0.000155193
0.000163106
0.000170422
0.000177083
0.000183014
0.000188195
0.000192529
0.000195985
0.000198435
0.000199795
0.000199925
0.000198717
0.000195861
0.000191495
0.000186889
0.000180445
0.000171638
0.000161262
0.000149976
0.000137359
0.000123498
0.000108937
9.41756e-05
7.95656e-05
6.50668e-05
5.0057e-05
3.4528e-05
1.88567e-05
7.81324e-06
1.1098e-05
2.47395e-05
4.70012e-05
6.36164e-05
7.23974e-05
7.65047e-05
7.96653e-05
8.3221e-05
8.65409e-05
8.8626e-05
8.93097e-05
8.82107e-05
8.76788e-05
8.56262e-05
8.4855e-05
9.04648e-05
9.83582e-05
0.000107124
0.000117431
0.00012838
0.000138957
0.000149969
0.000159978
0.000170201
0.000179171
0.000187577
0.000195111
0.000201872
0.000207808
0.000212909
0.00021714
0.000220469
0.000222833
0.000224171
0.000224396
0.00022345
0.000221245
0.000217688
0.000212301
0.000205741
0.000198204
0.000188479
0.00017805
0.000165625
0.000152009
0.000137625
0.000122946
0.000107992
9.31585e-05
7.88108e-05
6.5214e-05
5.22123e-05
3.64677e-05
1.94414e-05
8.37672e-06
1.20794e-05
3.47614e-05
6.40858e-05
8.06657e-05
8.75366e-05
9.06279e-05
9.36278e-05
9.70217e-05
9.97851e-05
0.000100774
0.000101093
0.000100316
9.7531e-05
0.000100731
0.000109531
0.000119011
0.000130283
0.000142336
0.000154686
0.000166677
0.00017747
0.000188431
0.000198341
0.000207224
0.000215068
0.000222096
0.00022822
0.000233522
0.000237983
0.000241608
0.000244372
0.000246236
0.000247142
0.000247025
0.000245812
0.000243433
0.000239821
0.000234702
0.000227999
0.000220127
0.000210764
0.000199129
0.000185826
0.000171513
0.000156681
0.000140668
0.000124984
0.000109277
9.38326e-05
7.88755e-05
6.44895e-05
5.16414e-05
3.52256e-05
1.86788e-05
8.6745e-06
1.27005e-05
4.80698e-05
8.20585e-05
9.79108e-05
0.000102995
0.000105186
0.000107752
0.000110495
0.000112146
0.000112128
0.000111146
0.000110527
0.000117584
0.000128109
0.000139867
0.000152385
0.000165902
0.000178895
0.00019053
0.000202819
0.000213131
0.000222588
0.000230968
0.000238323
0.000244781
0.00025043
0.000255298
0.000259442
0.00026287
0.000265582
0.000267548
0.000268713
0.000268996
0.000268301
0.000266525
0.000263546
0.000259249
0.000253334
0.000245812
0.000236889
0.000226747
0.000214505
0.000200503
0.00018481
0.000167642
0.000150389
0.000132767
0.000115391
9.84942e-05
8.24538e-05
6.66327e-05
5.17212e-05
3.34974e-05
1.92635e-05
8.77053e-06
1.3482e-05
6.22709e-05
0.000100763
0.000115543
0.000119065
0.000120369
0.000122258
0.000123417
0.000123862
0.00012217
0.000125853
0.000134575
0.000146638
0.000159525
0.000173356
0.000187322
0.000200135
0.000212915
0.000223595
0.000234342
0.00024295
0.000250768
0.000257585
0.000263572
0.000268841
0.000273467
0.000277506
0.000280998
0.000283962
0.000286401
0.000288306
0.000289615
0.000290209
0.000289927
0.000288648
0.000286171
0.000282294
0.000276916
0.000269803
0.000260301
0.000249975
0.000237707
0.000223303
0.000206859
0.000188274
0.000167858
0.000146744
0.000127149
0.000107139
8.89557e-05
7.15285e-05
5.451e-05
3.68019e-05
1.96686e-05
8.74156e-06
1.41084e-05
7.76044e-05
0.000119824
0.000133353
0.000135159
0.000134876
0.000135383
0.000135134
0.00013345
0.000140766
0.000150636
0.000164266
0.000177776
0.000192279
0.000206377
0.000219494
0.00023065
0.000241856
0.000251434
0.000259554
0.00026657
0.000272769
0.000278257
0.000283167
0.000287587
0.000291577
0.000295179
0.000298409
0.000301262
0.000303715
0.00030573
0.000307343
0.000308572
0.000309417
0.000309698
0.000309201
0.000307558
0.000304032
0.000298609
0.000290312
0.00028012
0.000268852
0.000254779
0.000237983
0.000218197
0.000195664
0.000170989
0.000145311
0.000121462
9.89511e-05
7.82312e-05
5.92034e-05
4.07567e-05
2.04043e-05
8.80204e-06
1.50471e-05
9.20927e-05
0.000137889
0.000150954
0.000151
0.000149852
0.000148619
0.000147602
0.000155641
0.00016624
0.000180403
0.000194666
0.000208854
0.000222662
0.000234575
0.000246031
0.000255174
0.000264168
0.00027143
0.000277852
0.000283592
0.000288847
0.000293546
0.000297768
0.000301597
0.000305099
0.000308328
0.000311327
0.00031412
0.000316703
0.000319026
0.000321103
0.000322882
0.000324257
0.000325171
0.000325581
0.000325492
0.000325038
0.000323522
0.000319946
0.000312917
0.000300913
0.000287758
0.000272793
0.000254184
0.000231714
0.00020558
0.00017622
0.000145033
0.000115412
8.91723e-05
6.55984e-05
4.46814e-05
2.2591e-05
9.38886e-06
1.68663e-05
0.000102453
0.000151736
0.000165474
0.000167616
0.000165505
0.000163494
0.000170584
0.000180491
0.000194783
0.000209312
0.000222303
0.000235144
0.000246727
0.000256314
0.000265992
0.000274227
0.000281643
0.000287788
0.000293158
0.000297816
0.00030184
0.00030534
0.000308437
0.000311217
0.000313758
0.000316142
0.000318448
0.000320753
0.000323134
0.000325658
0.000328239
0.00033081
0.000333302
0.000335609
0.000337575
0.00033899
0.000339586
0.000339373
0.000338552
0.000337316
0.000333209
0.000322538
0.000307699
0.000292104
0.00027169
0.000246765
0.00021685
0.000182274
0.000144606
0.000107557
7.71702e-05
5.05143e-05
2.98362e-05
1.31529e-05
1.88603e-05
0.000106864
0.000163133
0.000181766
0.000184694
0.000181087
0.000185557
0.000194408
0.00020687
0.000221113
0.000234019
0.000245346
0.000256551
0.000266758
0.000275273
0.000283462
0.000290002
0.000295664
0.000300044
0.000303449
0.000305942
0.000307855
0.000309388
0.000310692
0.000311889
0.000313097
0.000314419
0.000315942
0.000317739
0.000319861
0.000322349
0.000325223
0.00032848
0.000332085
0.000335952
0.000339942
0.000343851
0.000347409
0.000350275
0.000352029
0.000352208
0.000351554
0.000350112
0.000342812
0.000328192
0.000310621
0.000289018
0.000261406
0.000227156
0.000186469
0.000141137
9.6029e-05
5.96225e-05
3.60989e-05
1.90518e-05
2.06273e-05
0.000104386
0.000166538
0.000190621
0.000195679
0.0002004
0.00020735
0.00021746
0.000230377
0.000243452
0.000255047
0.000265151
0.000274835
0.000283332
0.000290177
0.000295525
0.000299129
0.000301534
0.000303056
0.000303959
0.000304302
0.00030426
0.000304056
0.000303542
0.000303028
0.000302608
0.000302409
0.000302534
0.000303118
0.0003043
0.000306191
0.000308891
0.000312473
0.000316961
0.000322323
0.000328453
0.000335158
0.000342159
0.000349085
0.000355443
0.000360662
0.00036409
0.000365166
0.000365343
0.000359818
0.000347282
0.000327955
0.000304662
0.000273337
0.0002332
0.000184323
0.000129269
7.62498e-05
4.21278e-05
2.53854e-05
2.21429e-05
9.57221e-05
0.000164327
0.000196072
0.000210231
0.000218235
0.000226721
0.000237582
0.000249687
0.000261352
0.000271524
0.000280102
0.000287129
0.000292436
0.000296032
0.000298401
0.000299587
0.000299747
0.000299075
0.000297736
0.000295848
0.000293549
0.000290967
0.000288207
0.000285442
0.000282458
0.000280602
0.000278871
0.000277379
0.000276863
0.000277314
0.000278969
0.000282019
0.000286624
0.000292876
0.000300758
0.000310118
0.00032068
0.000332165
0.000343899
0.000355163
0.000365168
0.000373043
0.000377831
0.000380477
0.000376232
0.000364882
0.000343827
0.000317364
0.000280269
0.000231217
0.000170136
0.000102159
5.34123e-05
3.00508e-05
2.36947e-05
8.60396e-05
0.000159316
0.000200092
0.000219607
0.000230727
0.000240912
0.000251617
0.000262231
0.000271851
0.000279933
0.000286313
0.000291026
0.000294098
0.000295637
0.000295866
0.000294925
0.000292969
0.00029016
0.000286654
0.000282605
0.000278175
0.000273534
0.000268852
0.000264302
0.00026003
0.000256229
0.000252304
0.000249492
0.000247997
0.000245934
0.000244981
0.000245437
0.000247808
0.000252632
0.000260297
0.000270748
0.000283073
0.000298823
0.000316306
0.000334373
0.000351992
0.000368093
0.000381429
0.000390681
0.000395338
0.000393056
0.00038135
0.000357477
0.000325038
0.000278337
0.000215257
0.000136544
6.66949e-05
3.3379e-05
2.45509e-05
7.05047e-05
0.000142134
0.000190872
0.000217824
0.000234294
0.000247114
0.000258439
0.000268442
0.000276852
0.000283474
0.000288254
0.000291255
0.000292591
0.000292414
0.000290906
0.000288242
0.000284602
0.000280179
0.000275182
0.000269835
0.000264383
0.000259078
0.000254153
0.00024979
0.000246072
0.000242951
0.000240213
0.000237139
0.000233938
0.000231615
0.000227576
0.000223527
0.000219947
0.000217698
0.000218217
0.000223513
0.000236001
0.000253241
0.000275523
0.000300167
0.000325727
0.000351187
0.000374642
0.000393838
0.000408421
0.000415117
0.000412559
0.000397576
0.000368249
0.000324776
0.000261398
0.000175621
8.54066e-05
3.60945e-05
2.62724e-05
5.88259e-05
0.000126696
0.000178731
0.000211489
0.00023234
0.000247159
0.000258686
0.000267853
0.000274946
0.000280179
0.000283767
0.000285815
0.000286403
0.000285629
0.000283633
0.000280594
0.000276724
0.000272248
0.000267452
0.000262656
0.000258182
0.000254327
0.00025132
0.000249278
0.000248094
0.000247334
0.000246733
0.000245856
0.000243811
0.000241349
0.000237309
0.000231843
0.000224746
0.000216413
0.000207903
0.000201122
0.000198932
0.000204957
0.000221816
0.000249594
0.00028474
0.000321377
0.000357669
0.00039185
0.000417947
0.000435317
0.00044225
0.000436664
0.000414115
0.000374036
0.000311395
0.000220702
0.000109334
3.84449e-05
2.29578e-05
4.04535e-05
8.91934e-05
0.000141789
0.000183403
0.000213772
0.000234983
0.000250515
0.000262439
0.00027175
0.00027867
0.000283123
0.000285536
0.000286256
0.000285593
0.000283808
0.000281114
0.000277637
0.000274014
0.000270298
0.000266614
0.00026311
0.000259926
0.00025715
0.00025477
0.000252695
0.000251311
0.000250636
0.000250297
0.000249798
0.000248169
0.000244835
0.000240188
0.000232403
0.000222321
0.000210676
0.000198815
0.000189024
0.000184172
0.000189225
0.000211099
0.000248991
0.000297473
0.000346528
0.000390023
0.000428087
0.000457671
0.0004758
0.000479492
0.000465399
0.000429024
0.000366336
0.00027048
0.000140302
4.07286e-05
2.79958e-05
3.91519e-05
7.55048e-05
0.000121111
0.000161204
0.000193321
0.000218802
0.000236577
0.000247787
0.000255508
0.00026195
0.000267603
0.000271932
0.00027491
0.000276632
0.000277231
0.000276858
0.00027572
0.000273585
0.000270848
0.000267796
0.000264631
0.000261503
0.000258511
0.00025573
0.000253293
0.000251118
0.000249041
0.000246955
0.000244564
0.000241048
0.000236769
0.000231291
0.000221991
0.000210469
0.000197236
0.000183238
0.00017077
0.00016402
0.000169485
0.00019107
0.000228375
0.000277223
0.00033329
0.00039107
0.000444461
0.000488964
0.000520858
0.000536378
0.000531261
0.000500326
0.000436784
0.000332556
0.000180524
4.35653e-05
1.50697e-05
2.17409e-05
3.80772e-05
6.29876e-05
9.23005e-05
0.000120381
0.00014624
0.000170582
0.000193011
0.000212223
0.000226791
0.000237066
0.00024365
0.00024765
0.00024979
0.000250441
0.000249915
0.000248482
0.000246326
0.000243525
0.000240171
0.00023638
0.000232251
0.000227904
0.000223394
0.000218821
0.000214232
0.000209558
0.000204609
0.000199871
0.000196917
0.000191812
0.000186095
0.000178481
0.000170391
0.000163125
0.000158343
0.000157908
0.000163881
0.000178714
0.000205418
0.000246328
0.000300584
0.000363505
0.000428906
0.000491378
0.000546928
0.000591923
0.000621142
0.000628125
0.000605057
0.000541959
0.000428319
0.00024518
4.7723e-05
1.43344e-05
3.36316e-05
5.09667e-05
6.84657e-05
8.58717e-05
0.000101155
0.000114062
0.000124844
0.000133675
0.000140904
0.000146465
0.000150282
0.000152732
0.000154094
0.000154893
0.000155001
0.000155098
0.000154882
0.000154544
0.000154184
0.000153792
0.000153664
0.00015328
0.000153422
0.000153587
0.000154147
0.000155095
0.000156482
0.000158421
0.000160949
0.000164321
0.000168482
0.000173677
0.000182031
0.000194083
0.000210586
0.000232179
0.000259344
0.000292315
0.000330983
0.000374814
0.00042282
0.000473665
0.000525714
0.000577321
0.0006276
0.00067802
0.000730507
0.000774074
0.000795932
0.000781809
0.000714793
0.000578567
0.000341447
5.39597e-05
2.50398e-05
0.000109426
0.000177604
0.000226932
0.000264993
0.000295221
0.000319774
0.000340088
0.000357142
0.000371776
0.000384684
0.000395402
0.000405326
0.000414331
0.000422559
0.00043018
0.000437363
0.00044426
0.000451006
0.000457733
0.000464619
0.000471763
0.000479228
0.000487073
0.000495346
0.00050409
0.000513365
0.000522953
0.000533434
0.000544136
0.000555868
0.000568181
0.000580925
0.000593024
0.000604512
0.000615431
0.000625843
0.000635837
0.000645569
0.000655313
0.000665556
0.000677192
0.000691843
0.000712253
0.000742327
0.000785857
0.000842506
0.000903859
0.000959376
0.000994482
0.000990925
0.000925819
0.00077416
0.000486404
6.32108e-05
0.000281146
0.000198736
0.000161704
0.000142585
0.000131786
0.000124958
0.000120423
0.000116997
0.000114483
0.000112478
0.000110898
0.000109591
0.000108551
0.000107677
0.000106946
0.000106288
0.000105722
0.000105193
0.00010471
0.00010425
0.000103826
0.000103419
0.000103041
0.000102672
0.000102335
0.000101999
0.000101696
0.000101389
0.000101112
0.000100829
0.000100577
0.000100316
0.000100085
9.98416e-05
9.96295e-05
9.94026e-05
9.92066e-05
9.89948e-05
9.88117e-05
9.86138e-05
9.84428e-05
9.8257e-05
9.80965e-05
9.79217e-05
9.77705e-05
9.76058e-05
9.74635e-05
9.73072e-05
9.71731e-05
9.70243e-05
9.6898e-05
9.67567e-05
9.6637e-05
9.65029e-05
9.63885e-05
9.62617e-05
9.61518e-05
9.60323e-05
9.59258e-05
9.58133e-05
9.57096e-05
9.56041e-05
9.55026e-05
9.54036e-05
9.53038e-05
9.52111e-05
9.51124e-05
9.50258e-05
9.4927e-05
9.48467e-05
9.47456e-05
9.4672e-05
9.45655e-05
9.44978e-05
9.43821e-05
9.43098e-05
9.41938e-05
9.40533e-05
9.38437e-05
9.40023e-05
0.000466787
0.00030593
0.000237223
0.000200772
0.000180445
0.000167482
0.000162398
0.000159546
0.000162552
0.000165602
0.000170732
0.000176067
0.000181693
0.00018733
0.000192176
0.000197059
0.000201127
0.00020477
0.000208006
0.000210865
0.000213404
0.000215698
0.00021769
0.000219532
0.000221213
0.000222692
0.000224098
0.00022529
0.000226428
0.000227437
0.000228403
0.000229243
0.00023007
0.000230765
0.000231479
0.000232052
0.000232675
0.000233149
0.000233685
0.000234094
0.000234551
0.000234898
0.000235288
0.00023559
0.00023592
0.000236189
0.000236464
0.000236693
0.000236932
0.000237125
0.000237349
0.000237502
0.000237708
0.000237827
0.000238017
0.000238108
0.000238286
0.00023835
0.000238516
0.000238557
0.000238713
0.000238735
0.000238881
0.000238885
0.000239022
0.000239011
0.000239142
0.000239111
0.000239245
0.000239191
0.00023933
0.000239258
0.000239398
0.000239315
0.000239431
0.000239356
0.000239441
0.000239174
0.000239636
0.000238361
0.000503756
0.000352007
0.000285778
0.000251016
0.00023032
0.000215914
0.000206164
0.00019889
0.000195274
0.000193687
0.000196392
0.000196738
0.00020425
0.000211043
0.000218688
0.000226901
0.00023508
0.000243141
0.000250896
0.000258326
0.000265346
0.000272009
0.000278243
0.000284118
0.000289637
0.000294847
0.000299855
0.000304208
0.000308558
0.000312566
0.000316403
0.000319922
0.000323342
0.000326441
0.000329509
0.000332239
0.00033501
0.000337419
0.000339919
0.000342097
0.000344314
0.000346287
0.000348269
0.000350081
0.000351845
0.000353524
0.000355069
0.000356621
0.000358008
0.000359453
0.000360728
0.000362033
0.00036321
0.000364395
0.000365484
0.000366573
0.000367577
0.000368573
0.000369501
0.000370418
0.000371276
0.000372121
0.000372916
0.000373692
0.000374433
0.000375146
0.000375842
0.00037649
0.000377154
0.000377737
0.000378384
0.000378897
0.000379542
0.000379976
0.00038061
0.00038101
0.000381506
0.000381925
0.000382622
0.000382026
0.000509371
0.00036379
0.000300346
0.000267792
0.000248861
0.000236665
0.000228375
0.000222822
0.000218365
0.000215116
0.000213865
0.000211262
0.00021353
0.000212768
0.000218736
0.00022493
0.000232166
0.000240667
0.000249834
0.000259543
0.00026945
0.00027943
0.000289314
0.000298994
0.000308471
0.000317575
0.000326535
0.000334952
0.000343159
0.000350922
0.000358486
0.00036557
0.00037252
0.000378959
0.000385351
0.000391185
0.000397092
0.000402338
0.000407876
0.000412615
0.000417599
0.000422036
0.00042655
0.000430681
0.000434835
0.000438619
0.000442469
0.000445912
0.000449521
0.000452632
0.000456071
0.00045885
0.000462128
0.00046465
0.000467734
0.000470085
0.000472927
0.000475151
0.000477766
0.00047988
0.000482277
0.000484293
0.000486478
0.000488419
0.00049042
0.000492283
0.000494114
0.000495903
0.000497604
0.000499294
0.000500914
0.000502482
0.000504027
0.000505489
0.000506929
0.000508322
0.000509588
0.000510944
0.000512277
0.000512502
0.000510079
0.000366275
0.000304582
0.000273576
0.000255114
0.00024315
0.000234984
0.000229343
0.0002256
0.000222828
0.000221589
0.000219879
0.000220023
0.000218629
0.000219856
0.000221849
0.000221689
0.000227045
0.000232389
0.000239177
0.000246969
0.000255961
0.00026583
0.000276301
0.000287309
0.000298448
0.000309868
0.000321126
0.000332448
0.000343432
0.000354416
0.000364923
0.000375427
0.000385344
0.000395304
0.00040458
0.00041398
0.000422612
0.000431436
0.000439526
0.000447713
0.000455261
0.000462918
0.000469924
0.000477129
0.000483597
0.000490409
0.00049634
0.000502827
0.000508213
0.000514479
0.000519244
0.000525412
0.000529704
0.00053562
0.000539493
0.000545173
0.000548709
0.000554154
0.000557368
0.000562571
0.000565511
0.000570452
0.000573238
0.000577875
0.000580517
0.000584866
0.000587414
0.000591482
0.000593944
0.000597799
0.00060012
0.000603806
0.000605969
0.000609503
0.000611556
0.000614671
0.000616535
0.000619612
0.000620707
0.000510182
0.000366779
0.000305792
0.000275543
0.000257822
0.000245915
0.000237628
0.000231474
0.000227199
0.000223685
0.000221635
0.000219766
0.000219191
0.00021848
0.000218606
0.00021913
0.000219551
0.000220626
0.000222568
0.000225139
0.000226596
0.000231444
0.000236788
0.000243211
0.000250722
0.000259276
0.000268992
0.000279333
0.000290608
0.000302115
0.000314286
0.000326339
0.000338882
0.000351033
0.000363579
0.000375539
0.000387851
0.000399454
0.000411367
0.00042253
0.000433974
0.000444583
0.000455556
0.000465562
0.000476082
0.000485459
0.000495557
0.000504291
0.00051401
0.000522092
0.000531478
0.000538917
0.000547975
0.000554877
0.000563572
0.000569999
0.000578328
0.000584278
0.000592327
0.000597782
0.000605631
0.000610466
0.000618244
0.000622517
0.000630183
0.000633969
0.000641436
0.000645087
0.000652186
0.000655634
0.000662367
0.000665637
0.000672049
0.000675156
0.000681274
0.000684188
0.000689956
0.000692599
0.000698414
0.000700494
0.000510094
0.000366574
0.000305418
0.000275173
0.000257834
0.000246405
0.000238473
0.00023241
0.000227966
0.000224216
0.000221498
0.000219009
0.000217407
0.00021586
0.000215185
0.000214423
0.000214689
0.000214496
0.00021565
0.000216069
0.0002179
0.000218425
0.000221835
0.000223598
0.000225091
0.000229772
0.000234255
0.00023955
0.00024616
0.000253412
0.000262101
0.000271291
0.000281906
0.000292691
0.000304741
0.000316628
0.000329584
0.00034208
0.000355496
0.000368197
0.000381772
0.000394371
0.000407901
0.000420199
0.000433558
0.000445421
0.000458529
0.000469869
0.000482675
0.000493442
0.000505903
0.000516097
0.000528168
0.000537815
0.000549485
0.000558599
0.000569893
0.000578438
0.000589416
0.000597375
0.000608087
0.000615443
0.000625893
0.000632702
0.000642881
0.00064919
0.000659089
0.000664947
0.00067466
0.000679938
0.000689587
0.000694309
0.000703815
0.000708163
0.00071739
0.000721424
0.000730384
0.000734121
0.000742667
0.000747609
0.000510112
0.000366653
0.000305624
0.000275423
0.000258089
0.000246722
0.000238777
0.000232791
0.000228309
0.000224577
0.000221688
0.000219057
0.000217047
0.000215075
0.000213697
0.000212238
0.00021142
0.000210473
0.000210187
0.000209823
0.000210059
0.000210353
0.00021096
0.000212255
0.000213008
0.000214882
0.000216232
0.000219447
0.000220446
0.000223741
0.000227412
0.000231281
0.000236553
0.000241927
0.000249002
0.000256068
0.00026508
0.000273932
0.000284805
0.00029519
0.000307594
0.000319124
0.000332648
0.000344899
0.000359136
0.00037173
0.000386351
0.000399004
0.000413763
0.000426287
0.000441003
0.00045328
0.000467828
0.000479768
0.000494076
0.000505603
0.000519641
0.000530681
0.000544439
0.000554953
0.000568419
0.000578402
0.000591547
0.000601017
0.000613825
0.000622807
0.000635274
0.000643781
0.000655919
0.000663995
0.000675761
0.000683512
0.00069482
0.000702371
0.000713168
0.00072061
0.000730886
0.000738344
0.00074803
0.000756827
0.000510025
0.000366385
0.00030495
0.000274337
0.000257031
0.000245988
0.000238341
0.00023261
0.000228227
0.000224618
0.000221711
0.00021914
0.000217018
0.00021504
0.000213401
0.000211827
0.000210534
0.000209294
0.00020829
0.000207374
0.000206655
0.000206086
0.000205688
0.00020548
0.00020553
0.000205638
0.000206231
0.000206656
0.000208015
0.000208588
0.000210564
0.000211532
0.000214299
0.000216442
0.000218153
0.000221035
0.000224992
0.00022857
0.000233765
0.000238406
0.000245316
0.000251294
0.000260042
0.00026763
0.000278174
0.000287329
0.000299484
0.000309983
0.000323467
0.000334982
0.000349421
0.000361618
0.000376663
0.000389235
0.000404613
0.00041731
0.000432825
0.000445464
0.000460984
0.00047344
0.000488861
0.00050106
0.000516297
0.000528192
0.000543169
0.000554739
0.000569386
0.000580641
0.000594879
0.000605879
0.000619621
0.000630447
0.00064362
0.000654357
0.000666925
0.000677678
0.000689638
0.00070062
0.000712207
0.000724039
0.000510024
0.000366363
0.000304866
0.000273995
0.000256518
0.000245524
0.000237983
0.000232385
0.000228057
0.000224522
0.000221619
0.000219095
0.000216955
0.000215005
0.000213326
0.000211742
0.000210375
0.000209048
0.000207916
0.000206784
0.000205854
0.000204887
0.000204154
0.000203341
0.000202819
0.000202177
0.000201882
0.000201454
0.0002014
0.000201289
0.000201447
0.000201753
0.000202114
0.000202995
0.000203621
0.000204961
0.000205738
0.000207926
0.000208858
0.000211967
0.000214278
0.000214557
0.000219636
0.000221411
0.000226851
0.000230288
0.000236129
0.000240964
0.000248384
0.000254556
0.000263641
0.000271313
0.000282021
0.000291193
0.000303365
0.000313863
0.000327285
0.000338835
0.000353215
0.000365518
0.00038056
0.000393346
0.000408782
0.000421841
0.000437436
0.000450634
0.000466193
0.000479464
0.000494822
0.000508149
0.000523179
0.000536561
0.000551182
0.000564617
0.000578809
0.000592305
0.000606166
0.000619796
0.000633812
0.000648138
0.000509985
0.000366196
0.000304429
0.000273101
0.000255447
0.000244611
0.00023733
0.000231967
0.000227787
0.000224342
0.00022148
0.000218982
0.000216852
0.000214911
0.000213239
0.000211652
0.000210291
0.000208944
0.000207808
0.000206634
0.000205673
0.000204629
0.000203812
0.000202876
0.000202183
0.000201347
0.000200767
0.000200033
0.000199566
0.000198945
0.000198603
0.000198106
0.000197919
0.000197558
0.00019758
0.000197373
0.000197651
0.000197593
0.000198249
0.000198295
0.000199537
0.000199642
0.000201289
0.000201774
0.000203823
0.000204787
0.00020713
0.000209702
0.000211935
0.000213242
0.000217673
0.000219655
0.000224672
0.000228135
0.000233446
0.00023835
0.000244845
0.000251042
0.000258951
0.000266573
0.000275997
0.000285068
0.000295964
0.000306389
0.000318571
0.0003302
0.000343401
0.000356046
0.000369967
0.00038342
0.000397787
0.000411842
0.000426453
0.000440924
0.000455683
0.000470426
0.0004854
0.000500413
0.000516027
0.000531992
0.00050998
0.000366144
0.000304367
0.0002729
0.000255094
0.000244219
0.000236995
0.000231717
0.000227607
0.000224207
0.000221371
0.000218885
0.000216762
0.000214822
0.000213153
0.000211565
0.000210206
0.000208857
0.000207723
0.000206543
0.000205581
0.000204525
0.0002037
0.000202739
0.000202029
0.000201141
0.000200532
0.000199701
0.000199185
0.000198403
0.000197977
0.000197236
0.000196903
0.000196201
0.000195968
0.000195311
0.000195188
0.000194584
0.000194583
0.000194057
0.000194183
0.000193788
0.000194036
0.000193819
0.000194208
0.000194219
0.000194776
0.000195077
0.000195937
0.000196457
0.000197555
0.000198507
0.000199825
0.000201278
0.000202853
0.000205372
0.000206708
0.000208839
0.000211504
0.000214137
0.000217576
0.000221399
0.000225473
0.000230143
0.00023518
0.000240929
0.000247135
0.000254135
0.000261633
0.000270018
0.000278886
0.000288661
0.000298893
0.00030998
0.000321529
0.000333798
0.000346625
0.00036004
0.000374307
0.000389364
0.00050997
0.000366087
0.000304342
0.000272912
0.000255069
0.00024414
0.000236886
0.000231606
0.000227504
0.000224117
0.000221284
0.000218806
0.00021668
0.000214746
0.000213071
0.000211491
0.000210122
0.000208783
0.000207637
0.00020647
0.000205492
0.000204453
0.000203607
0.000202666
0.000201927
0.000201062
0.000200413
0.000199611
0.000199038
0.000198287
0.00019778
0.000197073
0.000196624
0.000195956
0.000195561
0.00019493
0.000194582
0.00019399
0.000193688
0.000193138
0.00019288
0.000192377
0.000192167
0.000191719
0.000191563
0.000191181
0.000191089
0.000190787
0.000190772
0.000190582
0.00019065
0.000190597
0.000190778
0.000190879
0.000191216
0.000191492
0.000192074
0.000192497
0.000193257
0.000193971
0.000194971
0.000196029
0.000197372
0.000198763
0.000200871
0.000202294
0.000204504
0.000206177
0.000209155
0.000212118
0.000215136
0.000218787
0.000222558
0.000227021
0.000231712
0.000237184
0.000243024
0.000249727
0.000257058
0.000265496
0.000509958
0.000366042
0.000304358
0.000273067
0.000255271
0.000244293
0.000236954
0.000231607
0.000227459
0.000224056
0.000221208
0.000218734
0.000216598
0.000214674
0.000212986
0.000211419
0.000210036
0.000208714
0.000207547
0.000206403
0.000205399
0.000204388
0.000203511
0.000202603
0.000201827
0.000201002
0.000200308
0.000199551
0.000198927
0.000198227
0.000197659
0.000197008
0.00019649
0.000195882
0.000195406
0.000194834
0.000194398
0.000193858
0.000193456
0.000192945
0.000192577
0.000192091
0.000191754
0.000191295
0.000190988
0.000190554
0.000190276
0.000189873
0.000189623
0.000189255
0.000189034
0.000188706
0.00018852
0.000188239
0.000188095
0.000187869
0.000187777
0.000187621
0.000187591
0.000187513
0.000187569
0.000187583
0.000187754
0.000187879
0.000188193
0.000188477
0.000188954
0.000189388
0.000190045
0.000190709
0.000191614
0.000192517
0.000193717
0.000194901
0.000196492
0.000198453
0.000199656
0.00020172
0.000204186
0.000206934
0.000509956
0.000366011
0.000304424
0.000273353
0.00025565
0.000244603