/*--------------------------------*- C++ -*----------------------------------*\
| =========                 |                                                 |
| \\      /  F ield         | OpenFOAM: The Open Source CFD Toolbox           |
|  \\    /   O peration     | Version:  2312                                  |
|   \\  /    A nd           | Website:  www.openfoam.com                      |
|    \\/     M anipulation  |                                                 |
\*---------------------------------------------------------------------------*/
FoamFile
{
    version     2.0;
    format      ascii;
    arch        "LSB;label=32;scalar=64";
    class       volScalarField;
    location    "4000";
    object      p;
}
// * * * * * * * * * * * * * * * * * * * * * * * * * * * * * * * * * * * * * //

dimensions      [0 2 -2 0 0 0 0];

internalField   nonuniform List<scalar> 
5880
(
0.0147538
0.0147365
0.014661
0.014526
0.0143696
0.0142178
0.0140815
0.0139479
0.0137955
0.0136094
0.0133779
0.0130928
0.0127465
0.0123299
0.0118367
0.0112609
0.0106037
0.0098772
0.00909264
0.0082716
0.00744189
0.00661973
0.00583145
0.00511406
0.00450072
0.00402597
0.00371886
0.0036082
0.00371806
0.00406384
0.00465527
0.00549193
0.00657519
0.00790072
0.00944382
0.0111684
0.0130283
0.0149797
0.0169523
0.0188716
0.020646
0.0221754
0.0233693
0.0241557
0.0244775
0.024328
0.0237685
0.022947
0.0220643
0.0212904
0.0207414
0.0204643
0.0203785
0.020384
0.0204095
0.0147416
0.0147191
0.0146433
0.0145114
0.0143614
0.0142171
0.0140872
0.0139602
0.013813
0.0136316
0.0134055
0.0131275
0.0127895
0.0123825
0.0119004
0.0113372
0.0106922
0.0099747
0.00919248
0.00836217
0.00751632
0.00668067
0.00587738
0.00514151
0.00451079
0.00402044
0.0037003
0.00357798
0.0036769
0.00401199
0.0045914
0.00542015
0.00649344
0.00779393
0.0093236
0.0110272
0.012866
0.01479
0.0167327
0.0186216
0.0203674
0.0218734
0.0230503
0.0238221
0.0241442
0.0240167
0.023508
0.0227486
0.0219214
0.021199
0.0206918
0.0204394
0.0203817
0.0203995
0.0204277
0.0147289
0.0146929
0.0146121
0.0144819
0.0143427
0.014215
0.0141005
0.0139861
0.0138485
0.013675
0.0134589
0.0131942
0.0128725
0.0124836
0.01202
0.0114763
0.0108499
0.0101416
0.00935398
0.0085055
0.0076276
0.00675186
0.0059104
0.00513653
0.00447068
0.00394883
0.00360129
0.00345451
0.00352887
0.00383799
0.00438796
0.00518752
0.00623736
0.00749125
0.0089727
0.0106223
0.0124072
0.0142723
0.0161569
0.0179914
0.0196914
0.0211676
0.022339
0.0231355
0.0235135
0.0234743
0.0230702
0.0224178
0.0216826
0.0210367
0.0205966
0.0203857
0.0203605
0.0204026
0.020438
0.0147185
0.0146619
0.0145702
0.0144408
0.0143151
0.0142093
0.0141166
0.0140208
0.0138998
0.0137423
0.0135427
0.0132957
0.0129924
0.0126206
0.0121702
0.011635
0.011003
0.0102708
0.0094409
0.00853278
0.00758821
0.006647
0.00575177
0.00493857
0.00424154
0.0036947
0.003325
0.00315687
0.00320805
0.00348996
0.00400849
0.00477101
0.00577184
0.00698342
0.00840715
0.00999868
0.0117267
0.013539
0.0153791
0.017182
0.0188671
0.0203525
0.0215598
0.0224202
0.0228857
0.0229491
0.0226473
0.022085
0.0214268
0.0208434
0.0204539
0.0202903
0.0202973
0.0203671
0.0204145
0.0147084
0.0146273
0.0145216
0.0143926
0.0142811
0.0141988
0.0141321
0.0140596
0.0139603
0.0138242
0.0136452
0.0134158
0.0131232
0.0127523
0.0122849
0.0117091
0.0110158
0.0101975
0.00927391
0.00828203
0.0072683
0.00627587
0.00534141
0.00450151
0.00378614
0.00322464
0.00284117
0.0026574
0.00268945
0.00294782
0.00343889
0.00416711
0.00512532
0.006299
0.00767761
0.00922754
0.0109179
0.0127012
0.014525
0.0163261
0.0180294
0.0195567
0.0208275
0.0217711
0.0223335
0.0224977
0.0222908
0.0218076
0.0212074
0.020662
0.0202982
0.0201583
0.0201897
0.0202828
0.020344
0.0147062
0.0146005
0.0144755
0.0143485
0.0142514
0.0141907
0.0141495
0.0141016
0.014025
0.0139083
0.0137419
0.0135127
0.0132024
0.0127872
0.0122477
0.0115655
0.0107454
0.00980445
0.00877729
0.00771276
0.0066481
0.00562054
0.00466443
0.00381063
0.00308701
0.00251897
0.00212865
0.00193588
0.001955
0.00219609
0.00266549
0.00336605
0.00429237
0.00543443
0.00677844
0.00829729
0.00996072
0.0117257
0.0135424
0.01535
0.0170814
0.018661
0.0200071
0.0210476
0.0217247
0.0220103
0.0219241
0.0215456
0.0210199
0.0205153
0.0201655
0.0200268
0.0200599
0.0201605
0.0202295
0.0147381
0.0146076
0.0144569
0.0143337
0.0142493
0.014205
0.0141807
0.0141477
0.0140825
0.0139679
0.013785
0.0135139
0.0131275
0.0126005
0.0119153
0.0110728
0.0101047
0.00905248
0.00794394
0.00682097
0.00571944
0.00466943
0.00370174
0.00284268
0.00211757
0.00154846
0.00115572
0.000958679
0.000969374
0.00119607
0.00164486
0.00231907
0.00321536
0.00432416
0.00563166
0.00711489
0.0087454
0.0104844
0.0122858
0.0140946
0.0158505
0.0174824
0.0189136
0.020072
0.020896
0.0213501
0.0214374
0.0212207
0.020825
0.0204014
0.0200834
0.0199375
0.0199472
0.020033
0.0200908
0.01486
0.0146971
0.0145209
0.0143915
0.0143106
0.0142689
0.0142411
0.0141967
0.0141084
0.0139484
0.0136912
0.0133095
0.0127711
0.0120566
0.0111788
0.0101773
0.009085
0.00793495
0.00676001
0.00559319
0.00446433
0.0033997
0.00242612
0.0015667
0.000843475
0.000276265
-0.0001153
-0.000316321
-0.000316818
-0.000108471
0.000315405
0.000958112
0.0018169
0.00288271
0.00414254
0.0055767
0.00715937
0.00885645
0.0106272
0.0124249
0.0141962
0.0158757
0.0173956
0.0186895
0.0196961
0.0203729
0.020709
0.0207409
0.0205578
0.0202885
0.0200516
0.0199143
0.0198871
0.0199285
0.0199514
0.0151516
0.0149441
0.0147234
0.0145694
0.0144733
0.0144063
0.0143355
0.0142278
0.0140494
0.0137711
0.0133566
0.0127727
0.012005
0.0110759
0.0100242
0.00887933
0.00767608
0.00644502
0.00521425
0.00401067
0.00285946
0.00178383
0.000806084
-5.32691e-05
-0.000774306
-0.00133925
-0.0017345
-0.00194889
-0.00196827
-0.00178239
-0.00138693
-0.000782268
2.85687e-05
0.0010392
0.00223807
0.00360824
0.0051272
0.00676562
0.00848867
0.0102581
0.0120288
0.0137463
0.015353
0.0167901
0.0180072
0.0189588
0.0196203
0.0199959
0.0201311
0.020107
0.0200184
0.01993
0.0198764
0.0198507
0.0198283
0.0156776
0.0154036
0.0151014
0.0148965
0.0147523
0.0146117
0.0144331
0.0141834
0.0138292
0.0133303
0.0126555
0.011803
0.0107977
0.00966951
0.00845319
0.00717963
0.00587837
0.00457502
0.00329283
0.00205476
0.000881835
-0.000206367
-0.0011909
-0.00205367
-0.00277773
-0.00334793
-0.0037518
-0.00397772
-0.00401546
-0.00385749
-0.00350008
-0.00294304
-0.00218911
-0.00124403
-0.000117611
0.00117602
0.00261808
0.00418448
0.0058463
0.00757198
0.00932593
0.0110664
0.0127492
0.0143311
0.0157655
0.0170119
0.0180407
0.0188329
0.0193876
0.0197262
0.019884
0.019904
0.0198576
0.0197629
0.0196989
0.0164234
0.0160674
0.0156364
0.0153384
0.0150929
0.0148107
0.0144425
0.0139553
0.0133179
0.0125043
0.0115222
0.0103992
0.00916189
0.0078439
0.00647542
0.00508338
0.00369054
0.00231795
0.000985537
-0.000287746
-0.00148445
-0.00258778
-0.00358141
-0.00444997
-0.00517921
-0.00575641
-0.00617053
-0.00641186
-0.00647254
-0.00634704
-0.00603237
-0.00552812
-0.00483658
-0.0039628
-0.00291497
-0.00170452
-0.000346519
0.00114018
0.0027329
0.00440601
0.00613212
0.00788187
0.0096241
0.0113266
0.0129571
0.0144832
0.0158733
0.0170983
0.0181279
0.018929
0.0194697
0.0197299
0.019739
0.0196128
0.0195164
0.0172373
0.0167699
0.0161691
0.0157273
0.0153216
0.0148248
0.014181
0.0133688
0.0123787
0.0112252
0.00993965
0.00855502
0.00710199
0.00560884
0.00410016
0.00259669
0.00111657
-0.000322725
-0.00170461
-0.00301357
-0.00423487
-0.00535418
-0.00635784
-0.00723315
-0.00796851
-0.00855357
-0.0089793
-0.00923805
-0.00932374
-0.00923212
-0.00896089
-0.0085098
-0.00788078
-0.00707808
-0.00610838
-0.00498081
-0.00370688
-0.00230048
-0.000778183
0.000840619
0.00253381
0.00427914
0.00605677
0.00784658
0.00962666
0.0113757
0.0130708
0.0146813
0.016165
0.0174659
0.0185024
0.01917
0.0194032
0.0193417
0.0192278
0.0177896
0.0171813
0.0163851
0.01576
0.0151371
0.0143681
0.0134009
0.0122359
0.010901
0.00943354
0.00787648
0.00626413
0.00462298
0.00297576
0.00134206
-0.000261934
-0.00182119
-0.003321
-0.00474758
-0.00608824
-0.00733118
-0.00846429
-0.00947656
-0.0103578
-0.0110989
-0.0116917
-0.0121293
-0.0124057
-0.0125165
-0.0124586
-0.0122302
-0.0118311
-0.0112626
-0.010528
-0.00963281
-0.0085837
-0.00738956
-0.00606094
-0.00460938
-0.00304755
-0.00139067
0.000343159
0.00213702
0.00397825
0.00585541
0.00775458
0.00966006
0.011551
0.0133933
0.0151279
0.0166631
0.0178542
0.0185486
0.0187452
0.0186404
0.0175853
0.0168163
0.015838
0.0150143
0.0141611
0.0131228
0.0118611
0.0103986
0.00878573
0.00707595
0.00531249
0.00352602
0.0017386
-3.01338e-05
-0.00176337
-0.00344726
-0.00506898
-0.0066163
-0.00807754
-0.00944183
-0.0106991
-0.0118407
-0.0128576
-0.0137418
-0.0144863
-0.0150851
-0.015533
-0.015826
-0.0159608
-0.0159354
-0.0157485
-0.0154
-0.0148908
-0.014223
-0.0134
-0.0124263
-0.0113082
-0.0100529
-0.00866931
-0.00716806
-0.00555909
-0.00385195
-0.00205904
-0.00019517
0.00172863
0.00370515
0.00572452
0.00777115
0.00982157
0.011833
0.0137228
0.0153629
0.0165732
0.0171956
0.0173337
0.0160667
0.0152386
0.0141669
0.0131868
0.0121421
0.0108985
0.00943533
0.00778713
0.0060099
0.00415709
0.00227023
0.000377351
-0.00150084
-0.00334581
-0.00514159
-0.00687482
-0.00853371
-0.0101076
-0.0115864
-0.0129608
-0.0142223
-0.0153631
-0.0163769
-0.0172582
-0.0180014
-0.0186023
-0.0190575
-0.0193642
-0.0195204
-0.0195248
-0.0193767
-0.019076
-0.0186233
-0.0180198
-0.0172672
-0.0163683
-0.0153265
-0.0141468
-0.0128367
-0.0114024
-0.00985223
-0.00819467
-0.00643769
-0.0045909
-0.00266747
-0.000680039
0.00136213
0.00344723
0.00555457
0.00765155
0.00967978
0.0115311
0.0130701
0.0141945
0.0147188
0.0131139
0.0123397
0.0112852
0.0102304
0.00908648
0.0077504
0.00620754
0.00449628
0.00266991
0.000777313
-0.00114377
-0.003066
-0.00496815
-0.00683193
-0.00864177
-0.0103842
-0.0120473
-0.0136204
-0.015094
-0.0164598
-0.0177105
-0.0188396
-0.0198416
-0.0207118
-0.0214478
-0.0220459
-0.0225039
-0.0228202
-0.0229936
-0.0230238
-0.0229107
-0.0226545
-0.0222555
-0.0217143
-0.0210313
-0.0202077
-0.0192465
-0.0181506
-0.0169237
-0.0155713
-0.0141004
-0.0125186
-0.0108346
-0.00905745
-0.00719798
-0.00527101
-0.00329349
-0.00128124
0.000746764
0.00275689
0.00469348
0.00647819
0.00803475
0.00926673
0.00991612
0.00918695
0.00855459
0.0076097
0.00657431
0.00542634
0.00409643
0.00257684
0.000901819
-0.000882702
-0.00273424
-0.0046184
-0.00650784
-0.00838009
-0.0102159
-0.0119988
-0.0137146
-0.0153509
-0.0168969
-0.0183433
-0.0196821
-0.0209065
-0.022011
-0.022991
-0.0238426
-0.024563
-0.0251511
-0.0256052
-0.0259244
-0.0261088
-0.0261586
-0.0260743
-0.0258568
-0.0255066
-0.0250239
-0.0244095
-0.0236644
-0.0227883
-0.0217826
-0.0206503
-0.0193961
-0.0180266
-0.0165494
-0.0149738
-0.0133107
-0.0115722
-0.00977349
-0.00793427
-0.00607862
-0.00423221
-0.00242645
-0.000712603
0.000833693
0.00212539
0.00312722
0.00371571
0.00518951
0.00466932
0.0038514
0.00288896
0.00179102
0.000524607
-0.000911042
-0.00248887
-0.00417245
-0.00592589
-0.00771799
-0.00952235
-0.0113166
-0.0130813
-0.0147998
-0.0164573
-0.0180409
-0.0195394
-0.0209431
-0.0222436
-0.023434
-0.0245087
-0.0254631
-0.0262935
-0.0269974
-0.027573
-0.0280205
-0.0283389
-0.0285285
-0.0285906
-0.0285264
-0.0283369
-0.0280236
-0.0275883
-0.0270328
-0.0263574
-0.0255628
-0.0246498
-0.0236187
-0.0224723
-0.0212166
-0.0198609
-0.0184158
-0.016893
-0.0153067
-0.0136731
-0.0120116
-0.0103475
-0.00871206
-0.00713981
-0.00567267
-0.00436637
-0.00332959
-0.00258147
-0.00210444
0.00211272
0.00182767
0.00118912
0.000345759
-0.000688891
-0.00188157
-0.00322584
-0.00470384
-0.00628696
-0.0079448
-0.00964942
-0.0113753
-0.0130999
-0.0148031
-0.016467
-0.0180761
-0.0196165
-0.0210764
-0.0224454
-0.0237147
-0.0248772
-0.0259268
-0.026859
-0.0276701
-0.0283578
-0.0289206
-0.0293581
-0.0296704
-0.029858
-0.0299223
-0.0298648
-0.0296875
-0.0293922
-0.028982
-0.0284581
-0.0278229
-0.0270788
-0.0262284
-0.0252753
-0.0242232
-0.023077
-0.0218437
-0.0205331
-0.0191569
-0.0177272
-0.0162596
-0.0147753
-0.0133006
-0.0118674
-0.0105139
-0.00928542
-0.00822972
-0.00736122
-0.00670481
-0.00620059
0.000676979
0.000464247
2.8545e-05
-0.000620806
-0.00151623
-0.00261765
-0.00386805
-0.00523969
-0.00670883
-0.00825407
-0.0098529
-0.0114833
-0.0131245
-0.0147571
-0.0163634
-0.0179271
-0.0194334
-0.0208691
-0.0222225
-0.0234836
-0.0246436
-0.0256954
-0.026633
-0.0274519
-0.0281487
-0.028721
-0.0291676
-0.0294888
-0.029684
-0.0297536
-0.0296983
-0.0295197
-0.0292196
-0.0288009
-0.0282662
-0.0276195
-0.0268659
-0.0260113
-0.0250628
-0.0240312
-0.0229288
-0.021764
-0.0205387
-0.0192523
-0.0179106
-0.01653
-0.0151329
-0.0137459
-0.0124007
-0.0111334
-0.00998664
-0.00902662
-0.00835514
-0.00787204
-0.00731052
0.00216997
0.00198501
0.00163681
0.00112766
0.000454071
-0.00040486
-0.00146212
-0.00269833
-0.00407062
-0.00554523
-0.00709569
-0.00869431
-0.0103178
-0.0119452
-0.013557
-0.0151349
-0.0166628
-0.0181257
-0.0195107
-0.0208061
-0.0220018
-0.023089
-0.0240607
-0.0249106
-0.0256343
-0.0262286
-0.0266908
-0.0270195
-0.0272142
-0.0272744
-0.0272002
-0.0269927
-0.0266531
-0.0261835
-0.025587
-0.024869
-0.0240363
-0.023099
-0.022072
-0.0209729
-0.0198195
-0.0186198
-0.0173711
-0.0160662
-0.0146988
-0.0132683
-0.0117838
-0.0102654
-0.00874056
-0.00724077
-0.00579984
-0.00445327
-0.0032432
-0.00227943
-0.00156199
0.00441274
0.00433619
0.0042598
0.00412869
0.0038437
0.00335557
0.00267119
0.00181532
0.000790892
-0.000396728
-0.00172474
-0.00316754
-0.00470024
-0.00629313
-0.00791704
-0.00954529
-0.0111544
-0.0127223
-0.0142293
-0.0156574
-0.016991
-0.0182161
-0.0193209
-0.0202959
-0.0211308
-0.0218181
-0.0223523
-0.0227298
-0.0229477
-0.0230049
-0.0229006
-0.0226344
-0.0222056
-0.021616
-0.0208683
-0.0199693
-0.0189286
-0.017759
-0.016475
-0.0150948
-0.0136268
-0.0120772
-0.0104384
-0.00868962
-0.00680974
-0.00479373
-0.0026607
-0.000450722
0.00178498
0.00399085
0.00610727
0.00808447
0.00995861
0.0118665
0.0135923
0.00878726
0.0089547
0.00926556
0.00960065
0.00985579
0.0099572
0.00985051
0.00951038
0.00893749
0.00814776
0.00716807
0.00601935
0.00472795
0.00332528
0.00184427
0.000316072
-0.00123098
-0.00277136
-0.0042819
-0.0057411
-0.00712957
-0.00842976
-0.0096262
-0.0107053
-0.0116556
-0.0124669
-0.0131298
-0.0136356
-0.0139762
-0.0141416
-0.0141243
-0.013922
-0.0135342
-0.0129621
-0.0122086
-0.011277
-0.0101711
-0.00889519
-0.00745448
-0.00585608
-0.00409529
-0.0021717
-8.20819e-05
0.00218095
0.00462279
0.00723414
0.00998172
0.0128232
0.0157439
0.0187609
0.0219135
0.0253502
0.0295726
0.0349251
0.03918
0.00801633
0.010497
0.0125386
0.0134379
0.013739
0.0136927
0.0133438
0.0126995
0.0117911
0.0106599
0.00934697
0.00789706
0.00634978
0.00473764
0.00309139
0.00144036
-0.000186315
-0.00176276
-0.00326504
-0.00467225
-0.00596475
-0.0071257
-0.00813942
-0.0089925
-0.00967216
-0.0101674
-0.0104674
-0.0105551
-0.0104057
-0.0100016
-0.00933171
-0.00838415
-0.00714415
-0.00559644
-0.0037244
-0.00151119
0.00106095
0.0040097
0.00735441
0.0111134
0.0152976
0.0199148
0.0249646
0.0304239
0.036233
0.0422932
0.0484925
0.0547409
0.0609875
0.0672256
0.0735851
0.0805001
0.0890961
0.100202
0.108812
0.0948272
0.0699286
0.0621357
0.0607171
0.059412
0.0577779
0.0564306
0.0553093
0.0542946
0.0533498
0.0524516
0.0515916
0.0507737
0.0499817
0.0492126
0.0484534
0.0477086
0.0469723
0.0462427
0.045518
0.0448039
0.0440946
0.0433924
0.0426948
0.0420049
0.0413183
0.0406402
0.039964
0.0392956
0.0386298
0.0379704
0.0373135
0.0366634
0.0360147
0.0353731
0.034732
0.0340965
0.0334633
0.0328357
0.032209
0.0315879
0.0309669
0.0303522
0.0297367
0.0291282
0.0285183
0.0279138
0.0273093
0.0267111
0.0261116
0.0255178
0.0249233
0.0243342
0.0237446
0.0231598
0.0225749
0.0219942
0.0214113
0.0208368
0.0202591
0.0196892
0.0191167
0.018552
0.0179856
0.0174273
0.0168691
0.0163192
0.0157721
0.0152354
0.0147058
0.0141943
0.0136999
0.0132329
0.0128086
0.0124387
0.0121765
0.012066
0.0122575
0.0128505
0.0162046
0.0883834
0.0669588
0.0606785
0.0599175
0.0589637
0.0575253
0.0562915
0.0552405
0.0542693
0.0533474
0.0524655
0.051616
0.050802
0.0500113
0.0492417
0.0484817
0.0477353
0.0469968
0.0462657
0.0455395
0.044824
0.0441134
0.0434099
0.0427114
0.0420205
0.041333
0.0406541
0.0399771
0.0393081
0.0386417
0.0379817
0.0373243
0.0366737
0.0360245
0.0353825
0.034741
0.0341052
0.0334716
0.0328437
0.0322167
0.0315953
0.0309741
0.030359
0.0297434
0.0291347
0.0285245
0.0279198
0.0273152
0.0267167
0.0261171
0.0255231
0.0249285
0.0243392
0.0237495
0.0231645
0.0225796
0.0219986
0.0214157
0.020841
0.0202633
0.0196933
0.0191207
0.0185559
0.0179894
0.0174309
0.0168727
0.0163227
0.0157756
0.0152387
0.0147091
0.0141975
0.013703
0.0132361
0.0128114
0.0124424
0.0121777
0.0120709
0.0122523
0.0128753
0.0155893
0.0853565
0.0674173
0.0611726
0.0602317
0.059178
0.057672
0.0563957
0.0553223
0.0543378
0.0534053
0.0525184
0.0516685
0.0508528
0.0500594
0.0492864
0.0485241
0.0477748
0.0470331
0.0463
0.0455716
0.0448542
0.0441419
0.0434368
0.0427369
0.0420447
0.0413561
0.0406759
0.0399979
0.039328
0.0386607
0.0379999
0.0373417
0.0366904
0.0360405
0.0353979
0.0347558
0.0341195
0.0334854
0.032857
0.0322295
0.0316076
0.030986
0.0303705
0.0297545
0.0291455
0.0285349
0.0279299
0.027325
0.0267262
0.0261263
0.0255321
0.0249373
0.0243477
0.0237578
0.0231725
0.0225875
0.0220062
0.0214232
0.0208482
0.0202704
0.0197001
0.0191274
0.0185624
0.0179958
0.0174371
0.0168788
0.0163286
0.0157814
0.0152443
0.0147147
0.0142028
0.0137083
0.013241
0.0128162
0.0124463
0.0121818
0.012068
0.0122549
0.0128129
0.0154153
0.0840153
0.0681192
0.0614386
0.060313
0.0592164
0.0576953
0.0564142
0.0553401
0.0543561
0.0534234
0.0525361
0.0516884
0.050874
0.0500816
0.0493103
0.0485496
0.0478012
0.0470599
0.0463272
0.0455986
0.0448808
0.0441677
0.043462
0.0427613
0.0420682
0.0413789
0.0406978
0.0400189
0.0393484
0.0386803
0.0380188
0.03736
0.0367081
0.0360576
0.0354144
0.0347719
0.0341349
0.0335004
0.0328715
0.0322435
0.0316213
0.0309992
0.0303834
0.029767
0.0291576
0.0285467
0.0279413
0.0273361
0.026737
0.0261369
0.0255423
0.0249472
0.0243574
0.0237672
0.0231818
0.0225965
0.022015
0.0214317
0.0208566
0.0202786
0.0197081
0.0191352
0.01857
0.0180032
0.0174444
0.0168859
0.0163354
0.0157882
0.0152507
0.014721
0.0142088
0.013714
0.0132463
0.0128209
0.0124498
0.0121835
0.0120623
0.0122399
0.0127605
0.0151354
0.082729
0.0683055
0.0615185
0.06033
0.0592449
0.057728
0.0564457
0.0553692
0.054383
0.0534471
0.0525576
0.0517079
0.0508908
0.050097
0.0493254
0.048564
0.0478158
0.0470755
0.0463437
0.0456162
0.0448994
0.0441871
0.0434819
0.0427816
0.0420886
0.0413993
0.0407179
0.0400386
0.0393678
0.0386993
0.0380373
0.0373781
0.0367256
0.0360748
0.0354312
0.0347882
0.0341508
0.0335159
0.0328867
0.0322582
0.0316356
0.0310132
0.0303971
0.0297803
0.0291707
0.0285594
0.0279537
0.0273482
0.0267489
0.0261485
0.0255536
0.0249583
0.0243682
0.0237778
0.0231921
0.0226066
0.0220248
0.0214414
0.020866
0.0202878
0.0197171
0.019144
0.0185786
0.0180116
0.0174526
0.0168939
0.0163433
0.0157958
0.015258
0.014728
0.0142154
0.0137201
0.0132518
0.0128252
0.0124525
0.0121826
0.0120521
0.0122089
0.0126968
0.014632
0.0813628
0.0683661
0.0616237
0.060398
0.0592956
0.0577747
0.0564823
0.0554028
0.0544123
0.0534728
0.0525809
0.0517288
0.0509095
0.0501138
0.0493403
0.0485768
0.0478273
0.0470865
0.0463543
0.0456261
0.0449099
0.044198
0.0434935
0.0427941
0.0421018
0.0414134
0.0407326
0.0400539
0.0393836
0.0387154
0.0380535
0.0373943
0.0367417
0.0360907
0.0354469
0.0348037
0.034166
0.0335309
0.0329014
0.0322726
0.0316498
0.0310272
0.0304107
0.0297938
0.029184
0.0285724
0.0279663
0.0273607
0.0267611
0.0261606
0.0255653
0.02497
0.0243795
0.023789
0.0232031
0.0226174
0.0220353
0.0214517
0.0208762
0.0202978
0.0197269
0.0191536
0.018588
0.0180207
0.0174616
0.0169026
0.0163518
0.015804
0.0152659
0.0147354
0.0142225
0.0137264
0.0132572
0.0128288
0.0124537
0.0121785
0.0120359
0.0121649
0.0125902
0.0140743
0.0799841
0.0683936
0.0617736
0.0604635
0.0593387
0.0578181
0.0565174
0.0554368
0.0544425
0.0535003
0.0526059
0.0517518
0.0509295
0.0501324
0.0493564
0.0485914
0.0478405
0.0470984
0.0463651
0.0456358
0.044919
0.0442066
0.0435016
0.0428017
0.0421094
0.0414214
0.0407408
0.0400624
0.0393928
0.0387253
0.038064
0.0374055
0.0367535
0.036103
0.0354597
0.0348166
0.0341792
0.0335441
0.0329147
0.0322858
0.0316629
0.0310402
0.0304235
0.0298065
0.0291966
0.0285848
0.0279785
0.0273729
0.026773
0.0261724
0.025577
0.0249815
0.0243909
0.0238002
0.0232141
0.0226285
0.022046
0.0214623
0.0208865
0.0203081
0.0197369
0.0191635
0.0185977
0.0180302
0.017471
0.0169117
0.0163606
0.0158126
0.015274
0.014743
0.0142296
0.0137324
0.0132621
0.0128311
0.012453
0.0121701
0.0120132
0.0121032
0.012448
0.0134847
0.078642
0.0683779
0.0619178
0.0605147
0.059377
0.0578619
0.0565569
0.055472
0.0544748
0.0535298
0.0526326
0.0517762
0.050951
0.0501524
0.0493739
0.0486074
0.0478545
0.0471116
0.0463761
0.0456473
0.0449295
0.0442162
0.0435106
0.0428098
0.0421171
0.0414286
0.0407477
0.0400688
0.0393988
0.0387312
0.03807
0.0374117
0.0367598
0.0361097
0.035467
0.0348243
0.0341874
0.033553
0.032924
0.0322957
0.0316732
0.0310508
0.0304343
0.0298176
0.0292078
0.028596
0.0279895
0.027384
0.0267841
0.0261834
0.0255878
0.0249922
0.0244015
0.0238108
0.0232246
0.0226391
0.0220561
0.0214725
0.0208966
0.0203182
0.0197468
0.0191733
0.0186073
0.0180396
0.0174802
0.0169207
0.0163694
0.0158212
0.0152819
0.0147503
0.0142363
0.0137377
0.013266
0.0128317
0.0124494
0.0121564
0.0119822
0.0120222
0.0122718
0.0128818
0.0773427
0.0682993
0.0620498
0.0605604
0.0594139
0.0579078
0.0565981
0.0555084
0.0545086
0.0535606
0.052661
0.0518019
0.0509748
0.0501735
0.0493926
0.0486244
0.0478697
0.0471256
0.046388
0.0456599
0.0449406
0.0442266
0.0435203
0.0428191
0.0421257
0.0414371
0.0407549
0.0400764
0.0394057
0.0387377
0.0380762
0.0374175
0.0367653
0.0361147
0.0354717
0.0348291
0.0341921
0.0335577
0.0329287
0.0323008
0.0316784
0.0310567
0.0304404
0.0298243
0.0292152
0.0286037
0.0279975
0.0273926
0.026793
0.0261926
0.0255972
0.0250018
0.0244111
0.0238204
0.0232342
0.0226489
0.0220655
0.021482
0.020906
0.0203275
0.019756
0.0191824
0.0186163
0.0180484
0.0174889
0.0169292
0.0163776
0.0158291
0.0152891
0.0147569
0.014242
0.0137417
0.0132681
0.0128296
0.0124422
0.0121361
0.0119412
0.0119215
0.0120614
0.0122757
0.0760942
0.0681577
0.0621741
0.0606025
0.0594474
0.0579529
0.0566394
0.0555455
0.0545435
0.0535931
0.0526909
0.0518293
0.0509999
0.0501958
0.0494126
0.0486426
0.0478863
0.0471403
0.0464023
0.0456729
0.0449524
0.0442377
0.0435307
0.042829
0.0421349
0.041446
0.0407625
0.0400847
0.0394133
0.038745
0.038083
0.0374242
0.0367714
0.0361213
0.0354771
0.0348345
0.0341973
0.0335626
0.0329334
0.0323052
0.0316825
0.0310606
0.0304442
0.0298279
0.0292189
0.0286076
0.0280012
0.0273968
0.0267974
0.0261975
0.0256024
0.0250075
0.0244172
0.0238269
0.0232411
0.0226567
0.0220729
0.0214899
0.020914
0.0203358
0.0197643
0.0191907
0.0186246
0.0180565
0.0174969
0.0169369
0.016385
0.0158362
0.0152953
0.0147622
0.0142464
0.013744
0.0132679
0.0128242
0.0124302
0.0121082
0.0118882
0.0118001
0.0118179
0.0116764
0.0748742
0.0679559
0.0622861
0.0606374
0.0594745
0.0579962
0.0566813
0.0555835
0.0545795
0.0536268
0.052722
0.051858
0.0510261
0.0502195
0.0494339
0.0486621
0.0479039
0.0471564
0.0464173
0.0456866
0.0449651
0.0442496
0.0435419
0.0428396
0.042145
0.0414552
0.0407718
0.0400934
0.0394213
0.0387527
0.0380903
0.0374313
0.0367778
0.0361284
0.0354827
0.0348402
0.034203
0.0335682
0.0329387
0.0323104
0.0316873
0.0310655
0.0304485
0.0298329
0.0292227
0.0286115
0.028005
0.0274006
0.0268008
0.0262008
0.0256054
0.0250106
0.02442
0.02383
0.023244
0.0226605
0.0220761
0.0214936
0.0209179
0.0203402
0.0197689
0.0191958
0.0186299
0.018062
0.0175027
0.0169427
0.0163908
0.0158418
0.0153
0.014766
0.0142492
0.0137442
0.0132652
0.0128151
0.0124128
0.0120717
0.0118222
0.0116579
0.0115443
0.0110901
0.073659
0.0676985
0.0623793
0.0606622
0.0594932
0.0580365
0.0567229
0.0556218
0.0546162
0.0536615
0.0527544
0.0518879
0.0510536
0.0502444
0.0494564
0.0486826
0.0479224
0.0471733
0.046433
0.0457012
0.0449787
0.0442624
0.043554
0.042851
0.0421557
0.0414654
0.0407814
0.0401024
0.0394299
0.038761
0.0380982
0.0374388
0.0367852
0.0361351
0.0354893
0.0348469
0.0342093
0.0335741
0.0329443
0.0323159
0.0316925
0.0310707
0.0304533
0.0298383
0.0292265
0.0286156
0.0280096
0.027405
0.026805
0.0262049
0.0256093
0.0250143
0.0244238
0.0238333
0.0232477
0.022663
0.0220791
0.0214966
0.0209204
0.0203428
0.0197712
0.019198
0.018632
0.0180638
0.0175046
0.0169443
0.0163923
0.0158434
0.0153002
0.0147655
0.0142473
0.01374
0.0132572
0.0128003
0.0123878
0.012025
0.0117419
0.0114963
0.0112458
0.0105245
0.0724161
0.0673894
0.0624484
0.0606752
0.0595019
0.0580723
0.0567633
0.0556598
0.0546533
0.0536972
0.052788
0.0519191
0.0510824
0.0502706
0.04948
0.0487042
0.0479421
0.0471912
0.0464498
0.0457167
0.0449931
0.0442758
0.0435665
0.0428629
0.0421668
0.041476
0.0407916
0.0401121
0.0394391
0.0387699
0.0381067
0.037447
0.036793
0.0361424
0.0354966
0.0348537
0.0342158
0.0335804
0.0329503
0.0323218
0.0316982
0.0310761
0.0304588
0.0298432
0.0292313
0.0286206
0.0280146
0.0274096
0.0268093
0.0262092
0.0256135
0.0250183
0.0244278
0.0238369
0.0232521
0.0226653
0.0220828
0.0215004
0.0209236
0.0203462
0.0197742
0.0192011
0.0186345
0.0180664
0.0175064
0.0169456
0.016393
0.0158432
0.0152991
0.0147622
0.0142426
0.013731
0.0132444
0.0127781
0.0123546
0.0119652
0.0116444
0.0113149
0.0109275
0.00998322
0.0711577
0.0670258
0.0624854
0.0606739
0.0594988
0.0581018
0.0568017
0.0556972
0.0546905
0.0537335
0.0528225
0.0519514
0.0511124
0.0502981
0.0495049
0.0487269
0.0479628
0.0472102
0.0464674
0.045733
0.0450082
0.04429
0.0435799
0.0428755
0.0421787
0.0414873
0.0408023
0.0401223
0.0394488
0.0387791
0.0381154
0.0374554
0.036801
0.0361501
0.035504
0.0348608
0.0342227
0.0335872
0.0329568
0.0323281
0.0317042
0.0310821
0.0304645
0.0298486
0.0292366
0.0286259
0.0280196
0.0274144
0.0268139
0.0262138
0.0256179
0.0250228
0.0244319
0.0238414
0.0232556
0.0226691
0.0220869
0.0215042
0.0209273
0.0203496
0.0197774
0.0192041
0.0186372
0.018069
0.0175085
0.0169472
0.0163941
0.0158424
0.0152984
0.0147594
0.0142371
0.0137214
0.0132296
0.0127534
0.0123169
0.0119
0.0115345
0.0111224
0.0106033
0.00948436
0.0699483
0.0666026
0.0624843
0.0606572
0.0594828
0.0581234
0.0568369
0.0557332
0.0547273
0.0537703
0.0528579
0.0519848
0.0511435
0.0503267
0.0495309
0.0487508
0.0479847
0.0472302
0.0464859
0.0457503
0.0450242
0.044305
0.0435939
0.0428888
0.0421912
0.0414991
0.0408136
0.040133
0.0394589
0.0387888
0.0381247
0.0374643
0.0368095
0.0361582
0.0355118
0.0348684
0.03423
0.0335942
0.0329634
0.0323346
0.0317104
0.0310881
0.0304702
0.0298542
0.0292421
0.0286312
0.0280248
0.0274196
0.0268189
0.0262187
0.0256228
0.0250275
0.0244365
0.0238458
0.0232597
0.0226734
0.0220909
0.0215082
0.0209309
0.0203532
0.0197807
0.0192074
0.0186401
0.0180718
0.0175105
0.016949
0.0163947
0.015842
0.0152971
0.0147558
0.0142303
0.0137102
0.0132121
0.0127257
0.0122735
0.0118288
0.011415
0.0109253
0.010286
0.00904126
0.0688019
0.0661274
0.0624448
0.0606265
0.0594547
0.0581365
0.0568685
0.0557676
0.0547633
0.0538071
0.0528938
0.052019
0.0511756
0.0503564
0.0495581
0.0487757
0.0480076
0.0472512
0.0465054
0.0457684
0.045041
0.0443208
0.0436087
0.0429027
0.0422043
0.0415115
0.0408254
0.0401442
0.0394695
0.038799
0.0381344
0.0374736
0.0368184
0.0361667
0.03552
0.0348763
0.0342376
0.0336015
0.0329704
0.0323414
0.031717
0.0310945
0.0304764
0.0298601
0.0292479
0.0286369
0.0280303
0.027425
0.026824
0.0262238
0.0256276
0.0250322
0.0244411
0.0238503
0.023264
0.0226775
0.022095
0.0215124
0.0209349
0.0203571
0.0197844
0.0192109
0.0186432
0.0180746
0.0175128
0.0169505
0.0163954
0.0158411
0.0152951
0.0147512
0.0142226
0.0136971
0.0131923
0.0126938
0.0122242
0.0117502
0.011289
0.0107284
0.00998408
0.00865815
0.0677249
0.0656111
0.0623658
0.0605809
0.059414
0.0581397
0.056895
0.0557995
0.054798
0.0538435
0.0529301
0.0520538
0.0512085
0.050387
0.0495863
0.0488017
0.0480315
0.0472731
0.0465258
0.0457874
0.0450586
0.0443372
0.0436241
0.0429173
0.0422181
0.0415245
0.0408377
0.0401559
0.0394806
0.0388096
0.0381445
0.0374833
0.0368277
0.0361756
0.0355285
0.0348845
0.0342455
0.0336092
0.0329777
0.0323485
0.0317238
0.0311012
0.0304828
0.0298663
0.0292539
0.0286428
0.028036
0.0274306
0.0268293
0.026229
0.0256327
0.0250373
0.0244459
0.0238551
0.0232684
0.022682
0.0220993
0.0215168
0.0209389
0.020361
0.0197879
0.0192143
0.0186461
0.0180773
0.0175146
0.0169517
0.0163955
0.0158399
0.0152922
0.0147459
0.0142131
0.0136825
0.0131694
0.0126588
0.0121696
0.011667
0.0111583
0.0105348
0.00970324
0.00833784
0.0667171
0.0650635
0.0622445
0.0605186
0.0593608
0.0581322
0.0569158
0.0558284
0.054831
0.0538792
0.0529663
0.0520891
0.051242
0.0504185
0.0496154
0.0488286
0.0480563
0.047296
0.046547
0.0458071
0.0450769
0.0443544
0.0436402
0.0429325
0.0422324
0.0415381
0.0408505
0.0401682
0.0394922
0.0388207
0.038155
0.0374935
0.0368373
0.0361849
0.0355374
0.0348931
0.0342537
0.0336172
0.0329853
0.0323559
0.0317309
0.0311081
0.0304894
0.0298728
0.0292601
0.028649
0.0280419
0.0274364
0.0268348
0.0262345
0.0256379
0.0250425
0.0244508
0.02386
0.023273
0.0226865
0.0221037
0.0215212
0.020943
0.020365
0.0197916
0.0192178
0.0186491
0.0180799
0.0175165
0.0169528
0.0163955
0.0158382
0.0152887
0.0147394
0.0142022
0.0136656
0.0131434
0.0126201
0.01211
0.0115795
0.0110244
0.0103471
0.00944894
0.00807799
0.0657826
0.0644964
0.0620809
0.0604381
0.0592951
0.058113
0.0569294
0.0558535
0.0548616
0.0539137
0.053002
0.0521244
0.0512759
0.0504505
0.0496452
0.0488562
0.0480818
0.0473197
0.0465689
0.0458275
0.0450959
0.0443722
0.0436568
0.0429483
0.0422472
0.0415521
0.0408638
0.0401808
0.0395042
0.0388322
0.0381659
0.0375039
0.0368473
0.0361945
0.0355466
0.034902
0.0342622
0.0336254
0.0329932
0.0323636
0.0317382
0.0311152
0.0304962
0.0298794
0.0292665
0.0286553
0.028048
0.0274424
0.0268406
0.0262402
0.0256434
0.0250479
0.0244559
0.0238651
0.0232778
0.0226913
0.0221082
0.0215258
0.0209472
0.0203692
0.0197953
0.0192214
0.0186521
0.0180826
0.0175182
0.0169537
0.0163949
0.0158361
0.0152841
0.0147319
0.0141895
0.0136469
0.0131144
0.0125783