/*--------------------------------*- C++ -*----------------------------------*\
| =========                 |                                                 |
| \\      /  F ield         | OpenFOAM: The Open Source CFD Toolbox           |
|  \\    /   O peration     | Version:  2312                                  |
|   \\  /    A nd           | Website:  www.openfoam.com                      |
|    \\/     M anipulation  |                                                 |
\*---------------------------------------------------------------------------*/
FoamFile
{
    version     2.0;
    format      ascii;
    arch        "LSB;label=32;scalar=64";
    class       surfaceScalarField;
    location    "4000";
    object      phi;
}
// * * * * * * * * * * * * * * * * * * * * * * * * * * * * * * * * * * * * * //

dimensions      [0 3 -1 0 0 0 0];

oriented        oriented;

internalField   nonuniform List<scalar> 
11554
(
2.52628e-07
-2.5255e-07
6.88789e-07
-4.3594e-07
1.09867e-06
-4.09745e-07
1.34075e-06
-2.41998e-07
1.4107e-06
-6.98936e-08
1.37877e-06
3.20481e-08
1.3307e-06
4.80914e-08
1.30803e-06
2.26445e-08
1.30926e-06
-1.31008e-09
1.30952e-06
-4.30442e-10
1.28469e-06
2.46291e-08
1.21753e-06
6.69236e-08
1.0973e-06
1.19972e-07
9.09345e-07
1.8772e-07
6.41009e-07
2.68124e-07
2.7609e-07
3.64716e-07
-2.01874e-07
4.77763e-07
-7.86745e-07
5.84768e-07
-1.50031e-06
7.13512e-07
-2.40548e-06
9.05124e-07
-3.49689e-06
1.09139e-06
-4.72453e-06
1.22762e-06
-6.04906e-06
1.32452e-06
-7.42729e-06
1.37822e-06
-8.81571e-06
1.38842e-06
-1.01715e-05
1.35579e-06
-1.14518e-05
1.28032e-06
-1.26262e-05
1.17449e-06
-1.36698e-05
1.04355e-06
-1.45642e-05
8.94367e-07
-1.52912e-05
7.26941e-07
-1.58332e-05
5.41896e-07
-1.61579e-05
3.24476e-07
-1.62632e-05
1.05205e-07
-1.61914e-05
-7.19229e-08
-1.58593e-05
-3.32194e-07
-1.52779e-05
-5.81425e-07
-1.4433e-05
-8.44964e-07
-1.3326e-05
-1.10694e-06
-1.19568e-05
-1.36922e-06
-1.03362e-05
-1.62067e-06
-8.50691e-06
-1.82928e-06
-6.51382e-06
-1.99311e-06
-4.41751e-06
-2.09634e-06
-2.3129e-06
-2.10464e-06
-3.25715e-07
-1.98725e-06
1.3681e-06
-1.69388e-06
2.56209e-06
-1.19407e-06
3.10933e-06
-5.47283e-07
3.02317e-06
8.61256e-08
2.40276e-06
6.20316e-07
1.52807e-06
8.7465e-07
7.42055e-07
7.85919e-07
2.18021e-07
5.23902e-07
2.17983e-07
6.40876e-07
-8.9336e-07
1.62253e-06
-1.41744e-06
2.50511e-06
-1.2923e-06
3.05475e-06
-7.91597e-07
3.24688e-06
-2.61935e-07
3.19136e-06
8.77059e-08
3.01801e-06
2.21478e-07
2.79406e-06
2.46526e-07
2.54453e-06
2.4803e-07
2.23916e-06
3.04589e-07
1.83291e-06
4.3049e-07
1.29482e-06
6.04551e-07
6.0769e-07
8.06651e-07
-2.5283e-07
1.04778e-06
-1.31577e-06
1.33063e-06
-2.61078e-06
1.65935e-06
-4.15159e-06
2.01829e-06
-5.97605e-06
2.4091e-06
-8.09872e-06
2.83612e-06
-1.04518e-05
3.25819e-06
-1.29581e-05
3.59769e-06
-1.55487e-05
3.81814e-06
-1.81241e-05
3.89995e-06
-2.05883e-05
3.84244e-06
-2.28697e-05
3.6698e-06
-2.49176e-05
3.40371e-06
-2.66994e-05
3.06213e-06
-2.81914e-05
2.66649e-06
-2.93791e-05
2.23126e-06
-3.02484e-05
1.76358e-06
-3.07987e-05
1.2773e-06
-3.10024e-05
7.4552e-07
-3.09386e-05
2.6048e-07
-3.05003e-05
-3.33229e-07
-2.97166e-05
-8.55699e-07
-2.85989e-05
-1.44988e-06
-2.7149e-05
-2.0314e-06
-2.5365e-05
-2.62891e-06
-2.32521e-05
-3.2199e-06
-2.08263e-05
-3.79502e-06
-1.81096e-05
-4.33735e-06
-1.51411e-05
-4.79779e-06
-1.19841e-05
-5.15016e-06
-8.7309e-06
-5.34954e-06
-5.49697e-06
-5.33862e-06
-2.41744e-06
-5.06689e-06
3.58141e-07
-4.46957e-06
2.66129e-06
-3.49734e-06
4.26776e-06
-2.15384e-06
4.94012e-06
-5.86334e-07
4.63304e-06
9.27276e-07
3.55238e-06
1.9552e-06
2.04846e-06
2.28967e-06
7.38904e-07
1.83328e-06
9.56851e-07
1.01672e-06
-1.91006e-06
2.37537e-06
-2.77585e-06
3.47449e-06
-2.39129e-06
4.12715e-06
-1.44415e-06
4.34018e-06
-4.74871e-07
4.18887e-06
2.39093e-07
3.78713e-06
6.23232e-07
3.23463e-06
7.98984e-07
2.57642e-06
9.06092e-07
1.79372e-06
1.0871e-06
8.32078e-07
1.39186e-06
-3.64639e-07
1.80098e-06
-1.8446e-06
2.28631e-06
-3.65316e-06
2.85605e-06
-5.81696e-06
3.49421e-06
-8.37047e-06
4.2127e-06
-1.13385e-05
4.98626e-06
-1.46701e-05
5.74071e-06
-1.824e-05
6.40601e-06
-2.18855e-05
6.90366e-06
-2.54406e-05
7.15275e-06
-2.87665e-05
7.14402e-06
-3.17698e-05
6.90322e-06
-3.44037e-05
6.47632e-06
-3.66459e-05
5.91202e-06
-3.84932e-05
5.25102e-06
-3.99534e-05
4.52237e-06
-4.10366e-05
3.74967e-06
-4.17532e-05
2.94784e-06
-4.21142e-05
2.12459e-06
-4.21235e-05
1.28654e-06
-4.18094e-05
4.31351e-07
-4.11306e-05
-4.18254e-07
-4.01421e-05
-1.32173e-06
-3.87988e-05
-2.19899e-06
-3.71263e-05
-3.12248e-06
-3.51147e-05
-4.04298e-06
-3.27682e-05
-4.97547e-06
-3.00922e-05
-5.8959e-06
-2.70975e-05
-6.7897e-06
-2.38101e-05
-7.62482e-06
-2.02678e-05
-8.34011e-06
-1.65286e-05
-8.88937e-06
-1.26794e-05
-9.19878e-06
-8.83356e-06
-9.18448e-06
-5.14207e-06
-8.75846e-06
-1.75967e-06
-7.85206e-06
1.15169e-06
-6.40879e-06
3.40203e-06
-4.40429e-06
4.78581e-06
-1.97022e-06
5.1489e-06
5.64087e-07
4.46989e-06
2.63408e-06
3.00723e-06
3.75218e-06
1.25652e-06
3.58375e-06
2.21333e-06
1.38027e-06
-3.29032e-06
2.93912e-06
-4.33477e-06
4.0246e-06
-3.47671e-06
4.54107e-06
-1.96054e-06
4.57157e-06
-5.05281e-07
4.21055e-06
6.00149e-07
3.54061e-06
1.29322e-06
2.62489e-06
1.71464e-06
1.47159e-06
2.05932e-06
5.35046e-08
2.50501e-06
-1.67785e-06
3.12302e-06
-3.78401e-06
3.90695e-06
-6.32956e-06
4.83165e-06
-9.36936e-06
5.8957e-06
-1.2927e-05
7.05174e-06
-1.69585e-05
8.24423e-06
-2.1343e-05
9.37066e-06
-2.58679e-05
1.02657e-05
-3.02824e-05
1.08205e-05
-3.43716e-05
1.09928e-05
-3.80065e-05
1.07877e-05
-4.11527e-05
1.02902e-05
-4.38174e-05
9.56793e-06
-4.60293e-05
8.6882e-06
-4.78182e-05
7.70086e-06
-4.92125e-05
6.64541e-06
-5.02371e-05
5.54692e-06
-5.09108e-05
4.42337e-06
-5.12481e-05
3.28513e-06
-5.12587e-05
2.13518e-06
-5.09468e-05
9.74649e-07
-5.0319e-05
-1.96459e-07
-4.93552e-05
-1.38208e-06
-4.80792e-05
-2.59769e-06
-4.64603e-05
-3.81791e-06
-4.45087e-05
-5.07413e-06
-4.22135e-05
-6.33822e-06
-3.95757e-05
-7.61327e-06
-3.65963e-05
-8.87535e-06
-3.32805e-05
-1.01055e-05
-2.9651e-05
-1.12544e-05
-2.57368e-05
-1.22543e-05
-2.15886e-05
-1.30376e-05
-1.72851e-05
-1.35024e-05
-1.29356e-05
-1.3534e-05
-8.68929e-06
-1.30048e-05
-4.72342e-06
-1.1818e-05
-1.23923e-06
-9.89305e-06
1.56503e-06
-7.20865e-06
3.52085e-06
-3.92615e-06
4.50563e-06
-4.20821e-07
4.41142e-06
2.72814e-06
3.29393e-06
4.86947e-06
1.55753e-06
5.31999e-06
3.77082e-06
1.69834e-06
-4.98873e-06
3.23541e-06
-5.87181e-06
4.09471e-06
-4.33595e-06
4.30337e-06
-2.16911e-06
4.01968e-06
-2.21561e-07
3.33049e-06
1.28942e-06
2.26719e-06
2.3565e-06
8.32457e-07
3.14938e-06
-1.00463e-06
3.8963e-06
-3.28739e-06
4.78766e-06
-6.07159e-06
5.90708e-06
-9.41717e-06
7.25237e-06
-1.33625e-05
8.77689e-06
-1.7891e-05
1.04241e-05
-2.28892e-05
1.205e-05
-2.81335e-05
1.34885e-05
-3.33348e-05
1.4572e-05
-3.82006e-05
1.51314e-05
-4.2525e-05
1.51449e-05
-4.62543e-05
1.47221e-05
-4.9424e-05
1.39574e-05
-5.20835e-05
1.29497e-05
-5.42911e-05
1.17755e-05
-5.60933e-05
1.04904e-05
-5.75284e-05
9.13594e-06
-5.8623e-05
7.73997e-06
-5.93954e-05
6.31934e-06
-5.9857e-05
4.88494e-06
-6.00133e-05
3.4414e-06
-5.98663e-05
1.9882e-06
-5.94139e-05
5.22194e-07
-5.86508e-05
-9.5952e-07
-5.75668e-05
-2.46613e-06
-5.61624e-05
-4.00206e-06
-5.44186e-05
-5.56174e-06
-5.23347e-05
-7.15807e-06
-4.98982e-05
-8.77475e-06
-4.71044e-05
-1.04071e-05
-4.39482e-05
-1.20316e-05
-4.04312e-05
-1.36225e-05
-3.65689e-05
-1.51167e-05
-3.23753e-05
-1.64479e-05
-2.7887e-05
-1.75259e-05
-2.31715e-05
-1.8218e-05
-1.83261e-05
-1.83795e-05
-1.34949e-05
-1.78361e-05
-8.87227e-06
-1.64407e-05
-4.69592e-06
-1.40695e-05
-1.20715e-06
-1.06975e-05
1.38812e-06
-6.52152e-06
2.96188e-06
-1.99471e-06
3.45399e-06
2.23587e-06
2.88282e-06
5.44049e-06
1.48879e-06
6.71383e-06
5.25958e-06
1.87952e-06
-6.8682e-06
3.11283e-06
-7.10488e-06
3.51435e-06
-4.73715e-06
3.27628e-06
-1.93089e-06
2.54572e-06
5.09209e-07
1.36242e-06
2.47276e-06
-3.08181e-07
4.02725e-06
-2.5248e-06
5.36597e-06
-5.34634e-06
6.71788e-06
-8.82032e-06
8.26156e-06
-1.29809e-05
1.00675e-05
-1.78273e-05
1.20988e-05
-2.32692e-05
1.42188e-05
-2.91039e-05
1.62588e-05
-3.50416e-05
1.79877e-05
-4.07268e-05
1.91737e-05
-4.58326e-05
1.96777e-05
-5.02497e-05
1.95485e-05
-5.40136e-05
1.89088e-05
-5.71979e-05
1.79064e-05
-5.98929e-05
1.66523e-05
-6.2162e-05
1.52188e-05
-6.40606e-05
1.3674e-05
-6.56248e-05
1.20546e-05
-6.68796e-05
1.03908e-05
-6.78406e-05
8.70097e-06
-6.85153e-05
6.99405e-06
-6.89045e-05
5.2741e-06
-6.90064e-05
3.54326e-06
-6.88173e-05
1.7991e-06
-6.83308e-05
3.56784e-08
-6.7537e-05
-1.75331e-06
-6.64277e-05
-3.57546e-06
-6.49951e-05
-5.43467e-06
-6.32244e-05
-7.33245e-06
-6.11087e-05
-9.27374e-06
-5.86343e-05
-1.12492e-05
-5.57912e-05
-1.32503e-05
-5.25673e-05
-1.52555e-05
-4.89576e-05
-1.72322e-05
-4.49633e-05
-1.91111e-05
-4.05861e-05
-2.0825e-05
-3.58422e-05
-2.22699e-05
-3.07727e-05
-2.32876e-05
-2.5458e-05
-2.36942e-05
-2.00187e-05
-2.32754e-05
-1.4648e-05
-2.18115e-05
-9.60597e-06
-1.91116e-05
-5.19128e-06
-1.51123e-05
-1.7007e-06
-1.00122e-05
6.52414e-07
-4.34796e-06
1.82204e-06
1.06611e-06
1.87747e-06
5.38487e-06
1.05005e-06
7.54106e-06
6.3096e-06
1.73729e-06
-8.60527e-06
2.34675e-06
-7.71337e-06
2.08507e-06
-4.475e-06
1.22681e-06
-1.07214e-06
-1.5392e-07
1.89014e-06
-2.09447e-06
4.41366e-06
-4.68541e-06
6.61828e-06
-8.0171e-06
8.69786e-06
-1.2148e-05
1.08488e-05
-1.70897e-05
1.32033e-05
-2.27802e-05
1.5758e-05
-2.90429e-05
1.83615e-05
-3.55998e-05
2.07757e-05
-4.20796e-05
2.27385e-05
-4.80702e-05
2.39783e-05
-5.33041e-05
2.44076e-05
-5.77665e-05
2.414e-05
-6.15545e-05
2.33365e-05
-6.47882e-05
2.21425e-05
-6.75616e-05
2.06798e-05
-6.9947e-05
1.90377e-05
-7.19963e-05
1.72681e-05
-7.37424e-05
1.542e-05
-7.52067e-05
1.3519e-05
-7.64018e-05
1.15858e-05
-7.73321e-05
9.63125e-06
-7.79981e-05
7.66005e-06
-7.83926e-05
5.66851e-06
-7.85088e-05
3.65948e-06
-7.83407e-05
1.63091e-06
-7.78799e-05
-4.2517e-07
-7.71163e-05
-2.51681e-06
-7.60409e-05
-4.6509e-06
-7.46442e-05
-6.83135e-06
-7.29143e-05
-9.06241e-06
-7.08413e-05
-1.13467e-05
-6.8412e-05
-1.36786e-05
-6.56132e-05
-1.60491e-05
-6.24292e-05
-1.84395e-05
-5.88469e-05
-2.08146e-05
-5.48471e-05
-2.31108e-05
-5.04164e-05
-2.52558e-05
-4.55535e-05
-2.71327e-05
-4.02629e-05
-2.85783e-05
-3.458e-05
-2.9377e-05
-2.85878e-05
-2.92677e-05
-2.24411e-05
-2.79583e-05
-1.63841e-05
-2.51687e-05
-1.07621e-05
-2.07344e-05
-5.98856e-06
-1.47859e-05
-2.4602e-06
-7.87646e-06
-3.57195e-07
-1.03708e-06
4.32489e-07
4.59498e-06
3.67477e-07
7.60587e-06
6.67703e-06
9.91166e-07
-9.59578e-06
7.73722e-07
-7.49493e-06
-3.89801e-07
-3.31074e-06
-2.12599e-06
6.64471e-07
-4.46289e-06
4.22747e-06
-7.50644e-06
7.45742e-06
-1.13709e-05
1.0483e-05
-1.61307e-05
1.34577e-05
-2.17799e-05
1.64981e-05
-2.82118e-05
1.96351e-05
-3.51789e-05
2.27251e-05
-4.2316e-05
2.54987e-05
-4.91849e-05
2.76446e-05
-5.53508e-05
2.89045e-05
-6.06486e-05
2.92761e-05
-6.51441e-05
2.89031e-05
-6.89812e-05
2.79771e-05
-7.2289e-05
2.66443e-05
-7.51734e-05
2.50269e-05
-7.77071e-05
2.32134e-05
-7.99336e-05
2.12642e-05
-8.18856e-05
1.922e-05
-8.35781e-05
1.71126e-05
-8.50199e-05
1.49607e-05
-8.62115e-05
1.27774e-05
-8.71494e-05
1.05692e-05
-8.78319e-05
8.34247e-06
-8.82579e-05
6.09456e-06
-8.84164e-05
3.81788e-06
-8.82927e-05
1.5072e-06
-8.78768e-05
-8.4115e-07
-8.71619e-05
-3.23167e-06
-8.61411e-05
-5.67166e-06
-8.4806e-05
-8.16645e-06
-8.31475e-05
-1.0721e-05
-8.11566e-05
-1.33375e-05
-7.88224e-05
-1.60128e-05
-7.61329e-05
-1.87386e-05
-7.30739e-05
-2.14986e-05
-6.9628e-05
-2.42604e-05
-6.57659e-05
-2.6973e-05
-6.14555e-05
-2.95663e-05
-5.66656e-05
-3.19226e-05
-5.13661e-05
-3.38778e-05
-4.55376e-05
-3.52056e-05
-3.91876e-05
-3.56177e-05
-3.23916e-05
-3.47543e-05
-2.53211e-05
-3.22392e-05
-1.82981e-05
-2.77575e-05
-1.18262e-05
-2.12579e-05
-6.53222e-06
-1.31706e-05
-2.95167e-06
-4.61782e-06
-1.14139e-06
2.78448e-06
-2.87519e-07
6.75168e-06
6.38948e-06
-1.00404e-07
-9.49489e-06
-1.72816e-06
-5.86633e-06
-4.10364e-06
-9.34781e-07
-7.06947e-06
3.63061e-06
-1.07357e-05
7.89395e-06
-1.52346e-05
1.19565e-05
-2.06463e-05
1.58948e-05
-2.69573e-05
1.97688e-05
-3.40252e-05
2.35661e-05
-4.15576e-05
2.71675e-05
-4.91218e-05
3.02893e-05
-5.6217e-05
3.25939e-05
-6.24651e-05
3.38927e-05
-6.77924e-05
3.42317e-05
-7.23234e-05
3.38071e-05
-7.62253e-05
3.2805e-05
-7.96295e-05
3.13813e-05
-8.26415e-05
2.96563e-05
-8.5332e-05
2.77174e-05
-8.77429e-05
2.56243e-05
-8.9898e-05
2.34193e-05
-9.18134e-05
2.11353e-05
-9.34928e-05
1.8792e-05
-9.49359e-05
1.64038e-05
-9.61381e-05
1.39796e-05
-9.70932e-05
1.15242e-05
-9.77888e-05
9.03808e-06
-9.82182e-05
6.52393e-06
-9.83767e-05
3.97626e-06
-9.82587e-05
1.38927e-06
-9.78589e-05
-1.241e-06
-9.71707e-05
-3.91993e-06
-9.61878e-05
-6.65457e-06
-9.49042e-05
-9.4501e-06
-9.33141e-05
-1.2311e-05
-9.14122e-05
-1.52395e-05
-8.91917e-05
-1.82334e-05
-8.66445e-05
-2.12858e-05
-8.37607e-05
-2.43824e-05
-8.05258e-05
-2.74954e-05
-7.69135e-05
-3.05852e-05
-7.28873e-05
-3.35925e-05
-6.83937e-05
-3.64163e-05
-6.33622e-05
-3.89093e-05
-5.77088e-05
-4.0859e-05
-5.1357e-05
-4.19695e-05
-4.42554e-05
-4.18559e-05
-3.64363e-05
-4.00584e-05
-2.80908e-05
-3.61029e-05
-1.96825e-05
-2.96664e-05
-1.20011e-05
-2.08521e-05
-6.02745e-06
-1.05916e-05
-2.44652e-06
-7.96823e-07
-6.69337e-07
4.97434e-06
5.72012e-06
-1.89584e-06
-7.59872e-06
-5.24146e-06
-2.5205e-06
-9.18871e-06
3.01262e-06
-1.37526e-05
8.19463e-06
-1.90749e-05
1.32163e-05
-2.52435e-05
1.8125e-05
-3.22256e-05
2.28768e-05
-3.98545e-05
2.73977e-05
-4.78284e-05
3.154e-05
-5.56754e-05
3.50145e-05
-6.28811e-05
3.7495e-05
-6.91603e-05
3.88731e-05
-7.45066e-05
3.92389e-05
-7.9085e-05
3.88102e-05
-8.30612e-05
3.77832e-05
-8.65708e-05
3.63146e-05
-8.97143e-05
3.45248e-05
-9.2556e-05
3.2498e-05
-9.51332e-05
3.02945e-05
-9.74688e-05
2.79599e-05
-9.95736e-05
2.55241e-05
-0.00010145
2.30114e-05
-0.000103094
2.04367e-05
-0.000104502
1.78118e-05
-0.000105667
1.51444e-05
-0.000106582
1.24386e-05
-0.00010724
9.69604e-06
-0.000107633
6.91761e-06
-0.000107758
4.1013e-06
-0.000107612
1.24322e-06
-0.000107192
-1.6613e-06
-0.000106494
-4.61782e-06
-0.000105517
-7.6321e-06
-0.000104258
-1.07089e-05
-0.000102717
-1.38523e-05
-0.000100892
-1.7064e-05
-9.87831e-05
-2.03427e-05
-9.63867e-05
-2.36823e-05
-9.36988e-05
-2.70704e-05
-9.07113e-05
-3.04829e-05
-8.74088e-05
-3.38877e-05
-8.37628e-05
-3.72385e-05
-7.97193e-05
-4.04598e-05
-7.51917e-05
-4.34369e-05
-7.00547e-05
-4.59961e-05
-6.41422e-05
-4.7882e-05
-5.72683e-05
-4.87298e-05
-4.92783e-05
-4.80484e-05
-4.01241e-05
-4.52571e-05
-3.00436e-05
-3.97469e-05
-1.97304e-05
-3.11653e-05
-1.05184e-05
-1.98039e-05
-4.02394e-06
-7.29133e-06
-9.73669e-07
1.92384e-06
4.74644e-06
-4.15145e-06
-3.44748e-06
-9.58069e-06
2.9087e-06
-1.54523e-05
8.88405e-06
-2.18821e-05
1.46243e-05
-2.89893e-05
2.03234e-05
-3.67405e-05
2.58762e-05
-4.4952e-05
3.10883e-05
-5.33158e-05
3.57614e-05
-6.13739e-05
3.95981e-05
-6.86585e-05
4.22991e-05
-7.49706e-05
4.3807e-05
-8.03595e-05
4.4262e-05
-8.50036e-05
4.38829e-05
-8.90708e-05
4.28774e-05
-9.26924e-05
4.14049e-05
-9.59624e-05
3.95846e-05
-9.89404e-05
3.75027e-05
-0.000101661
3.52187e-05
-0.000104143
3.2776e-05
-0.000106394
3.02116e-05
-0.000108418
2.75479e-05
-0.000110211
2.48039e-05
-0.000111768
2.19938e-05
-0.000113085
1.91286e-05
-0.000114156
1.62159e-05
-0.000114978
1.32605e-05
-0.000115547
1.02649e-05
-0.00011586
7.2302e-06
-0.000115913
4.15494e-06
-0.000115706
1.03612e-06
-0.000115237
-2.13038e-06
-0.000114506
-5.3491e-06
-0.000113514
-8.6245e-06
-0.000112262
-1.19604e-05
-0.000110755
-1.53598e-05
-0.000108995
-1.88239e-05
-0.000106986
-2.23515e-05
-0.000104731
-2.59377e-05
-0.00010223
-2.95715e-05
-9.94794e-05
-3.32332e-05
-9.64729e-05
-3.68942e-05
-9.31972e-05
-4.05142e-05
-8.96161e-05
-4.4041e-05
-8.5659e-05
-4.7394e-05
-8.12041e-05
-5.0451e-05
-7.60609e-05
-5.30252e-05
-6.99566e-05
-5.48341e-05
-6.25553e-05
-5.54497e-05
-5.35425e-05
-5.42699e-05
-4.27653e-05
-5.05241e-05
-3.0538e-05
-4.33926e-05
-1.80051e-05
-3.23367e-05
-7.46317e-06
-1.78336e-05
-1.90212e-06
-3.63703e-06
2.84433e-06
-6.70291e-06
3.25517e-06
-1.43649e-05
1.057e-05
-2.22878e-05
1.68065e-05
-3.05811e-05
2.29173e-05
-3.92521e-05
2.89942e-05
-4.81301e-05
3.47541e-05
-5.69363e-05
3.98944e-05
-6.52592e-05
4.40842e-05
-7.27034e-05
4.70422e-05
-7.91326e-05
4.87284e-05
-8.4639e-05
4.93134e-05
-8.94018e-05
4.90249e-05
-9.35961e-05
4.80772e-05
-9.73488e-05
4.66301e-05
-0.00010075
4.48059e-05
-0.000103855
4.269e-05
-0.000106696
4.03436e-05
-0.000109291
3.78136e-05
-0.000111649
3.51343e-05
-0.000113773
3.23351e-05
-0.000115662
2.94367e-05
-0.000117315
2.64568e-05
-0.00011873
2.34094e-05
-0.000119907
2.03054e-05
-0.000120844
1.71527e-05
-0.00012154
1.39564e-05
-0.000121994
1.07193e-05
-0.000122206
7.44237e-06
-0.000122176
4.12449e-06
-0.000121903
7.63078e-07
-0.000121388
-2.64544e-06
-0.000120632
-6.105e-06
-0.000119637
-9.61942e-06
-0.000118406
-1.31918e-05
-0.000116941
-1.68243e-05
-0.000115248
-2.05169e-05
-0.000113333
-2.42671e-05
-0.000111202
-2.8069e-05
-0.00010886
-3.19134e-05
-0.000106308
-3.57854e-05
-0.000103539
-3.96631e-05
-0.000100543
-4.35106e-05
-9.73034e-05
-4.72802e-05
-9.37835e-05
-5.0914e-05
-8.99014e-05
-5.43331e-05
-8.55098e-05
-5.74169e-05
-8.03638e-05
-5.99801e-05
-7.40846e-05
-6.17289e-05
-6.61678e-05
-6.21867e-05
-5.60821e-05
-6.06098e-05
-4.35328e-05
-5.5942e-05
-2.89318e-05
-4.69377e-05
-1.41156e-05
-3.26495e-05
-3.84207e-06
-1.39107e-05
-9.97782e-07
-9.06391e-06
1.23185e-05
-1.88079e-05
2.03136e-05
-2.85754e-05
2.65736e-05
-3.83498e-05
3.26915e-05
-4.80215e-05
3.86656e-05
-5.73793e-05
4.41118e-05
-6.6108e-05
4.8623e-05
-7.38772e-05
5.18533e-05
-8.05832e-05
5.37482e-05
-8.63395e-05
5.44846e-05
-9.13266e-05
5.43005e-05
-9.57222e-05
5.34204e-05
-9.9654e-05
5.20091e-05
-0.00010321
5.01865e-05
-0.000106447
4.80421e-05
-0.000109396
4.56397e-05
-0.00011208
4.3027e-05
-0.00011451
4.02435e-05
-0.000116695
3.73197e-05
-0.00011864
3.42803e-05
-0.000120349
3.11455e-05
-0.000121825
2.79321e-05
-0.000123069
2.4654e-05
-0.000124085
2.13216e-05
-0.000124875
1.79425e-05
-0.000125441
1.45219e-05
-0.000125784
1.10623e-05
-0.000125906
7.56436e-06
-0.000125808
4.02695e-06
-0.000125493
4.4743e-07
-0.00012496
-3.17773e-06
-0.000124213
-6.85248e-06
-0.000123252
-1.05806e-05
-0.000122079
-1.43652e-05
-0.000120695
-1.82081e-05
-0.000119103
-2.21089e-05
-0.000117305
-2.60648e-05
-0.000115305
-3.00696e-05
-0.000113105
-3.41131e-05
-0.00011071
-3.8181e-05
-0.000108119
-4.22537e-05
-0.000105324
-4.63059e-05
-0.000102303
-5.03014e-05
-9.9029e-05
-5.41877e-05
-9.54613e-05
-5.79008e-05
-9.15142e-05
-6.1364e-05
-8.70327e-05
-6.44616e-05
-8.1748e-05
-6.70136e-05
-7.52104e-05
-6.87242e-05
-6.67483e-05
-6.9072e-05
-5.55577e-05
-6.71327e-05
-4.11045e-05
-6.13908e-05
-2.39947e-05
-4.97594e-05
-7.57799e-06
-3.03275e-05
-8.57596e-06
-1.06543e-05
2.29724e-05
-2.19146e-05
3.15732e-05
-3.28998e-05
3.75583e-05
-4.34699e-05
4.32612e-05
-5.34931e-05
4.86885e-05
-6.27637e-05
5.33822e-05
-7.10145e-05
5.68737e-05
-7.81588e-05
5.89974e-05
-8.4308e-05
5.98974e-05
-8.96368e-05
5.98133e-05
-9.43207e-05
5.89843e-05
-9.84908e-05
5.75906e-05
-0.000102236
5.57547e-05
-0.000105619
5.35691e-05
-0.000108678
5.11016e-05
-0.000111443
4.8404e-05
-0.000113932
4.55165e-05
-0.000116162
4.24729e-05
-0.000118143
3.93008e-05
-0.000119885
3.60224e-05
-0.000121396
3.26569e-05
-0.000122684
2.92205e-05
-0.000123756
2.57252e-05
-0.000124615
2.21806e-05
-0.000125267
1.85946e-05
-0.000125716
1.49716e-05
-0.000125968
1.13138e-05
-0.000126025
7.62149e-06
-0.000125891
3.89296e-06
-0.000125568
1.25098e-07
-0.00012506
-3.68627e-06
-0.000124367
-7.54587e-06
-0.000123489
-1.14584e-05
-0.000122426
-1.54279e-05
-0.000121177
-1.94568e-05
-0.000119741
-2.35456e-05
-0.000118113
-2.76921e-05
-0.000116293
-3.18902e-05
-0.000114274
-3.61316e-05
-0.000112055
-4.04008e-05
-0.000109629
-4.46798e-05
-0.000106989
-4.89457e-05
-0.00010412
-5.31701e-05
-0.000100992
-5.7316e-05
-9.75609e-05
-6.13318e-05
-9.37736e-05
-6.51513e-05
-8.95425e-05
-6.86927e-05
-8.47137e-05
-7.18424e-05
-7.90183e-05
-7.44197e-05
-7.19809e-05
-7.61095e-05
-6.27983e-05
-7.63153e-05
-5.03447e-05
-7.38448e-05
-3.3725e-05
-6.63791e-05
-1.37586e-05
-5.02944e-05
-2.23349e-05
-1.11438e-05
3.41149e-05
-2.29714e-05
4.34001e-05
-3.43266e-05
4.89126e-05
-4.49609e-05
5.38948e-05
-5.47083e-05
5.84353e-05
-6.3393e-05
6.20665e-05
-7.09603e-05
6.44406e-05
-7.75129e-05
6.55497e-05
-8.32057e-05
6.559e-05
-8.82005e-05
6.48081e-05
-9.26265e-05
6.34103e-05
-9.65745e-05
6.15386e-05
-0.00010011
5.92904e-05
-0.000103282
5.67408e-05
-0.000106126
5.39458e-05
-0.000108671
5.09491e-05
-0.000110939
4.7785e-05
-0.000112949
4.44823e-05
-0.000114713
4.10655e-05
-0.000116246
3.75553e-05
-0.000117559
3.39694e-05
-0.000118661
3.03228e-05
-0.000119563
2.66277e-05
-0.000120276
2.28934e-05
-0.000120805
1.91241e-05
-0.000121158
1.53251e-05
-0.000121342
1.1498e-05
-0.000121363
7.64222e-06
-0.000121225
3.75569e-06
-0.000120934
-1.65761e-07
-0.000120493
-4.12744e-06
-0.000119903
-8.13556e-06
-0.000119164
-1.21967e-05
-0.000118275
-1.63171e-05
-0.00011723
-2.05017e-05
-0.000116022
-2.47531e-05
-0.000114642
-2.9072e-05
-0.000113079
-3.34534e-05
-0.000111323
-3.78879e-05
-0.000109359
-4.23644e-05
-0.000107172
-4.68666e-05
-0.000104744
-5.1374e-05
-0.000102053
-5.58613e-05
-9.90708e-05
-6.02977e-05
-9.57576e-05
-6.4645e-05
-9.20568e-05
-6.8852e-05
-8.78969e-05
-7.28527e-05
-8.31798e-05
-7.65596e-05
-7.77475e-05
-7.98521e-05
-7.13272e-05
-8.25299e-05
-6.34213e-05
-8.42215e-05
-5.31136e-05
-8.41524e-05
-3.90042e-05
-8.04889e-05
-2.02328e-05
-6.90664e-05
-4.25679e-05
-1.0093e-05
4.42077e-05
-2.13487e-05
5.46556e-05
-3.21677e-05
5.97307e-05
-4.2096e-05
6.38229e-05
-5.09497e-05
6.72881e-05
-5.86986e-05
6.98151e-05
-6.54445e-05
7.11862e-05
-7.13287e-05
7.14338e-05
-7.64938e-05
7.07549e-05
-8.10588e-05
6.9373e-05
-8.51126e-05
6.74641e-05
-8.87224e-05
6.51486e-05
-9.19421e-05
6.25102e-05
-9.48131e-05
5.96121e-05
-9.73686e-05
5.65015e-05
-9.9635e-05
5.32158e-05
-0.000101635
4.97851e-05
-0.000103387
4.6235e-05
-0.000104909
4.25879e-05
-0.000106216
3.88626e-05
-0.000107322
3.50756e-05
-0.00010824
3.12405e-05
-0.00010898
2.73684e-05
-0.000109554
2.34678e-05
-0.000109975
1.95456e-05
-0.000110251
1.56015e-05
-0.00011039
1.16378e-05
-0.000110402
7.65425e-06
-0.000110293
3.64788e-06
-0.000110072
-3.86339e-07
-0.000109744
-4.45472e-06
-0.000109314
-8.56565e-06
-0.000108781
-1.27288e-05
-0.000108143
-1.69544e-05
-0.000107392
-2.12525e-05
-0.000106513
-2.56318e-05
-0.000105493
-3.00919e-05
-0.000104313
-3.46335e-05
-0.000102949
-3.92515e-05
-0.000101378
-4.39355e-05
-9.95733e-05
-4.86714e-05
-9.75054e-05
-5.34419e-05
-9.51414e-05
-5.82253e-05
-9.24443e-05
-6.29948e-05
-8.9372e-05
-6.77175e-05
-8.58698e-05
-7.23541e-05
-8.18703e-05
-7.68525e-05
-7.72855e-05
-8.11442e-05
-7.20011e-05
-8.51369e-05
-6.58368e-05
-8.86944e-05
-5.84831e-05
-9.15754e-05
-4.93644e-05
-9.32719e-05
-3.73745e-05
-9.24794e-05
-2.08182e-05
-8.56235e-05
-6.33862e-05
-8.13673e-06
5.23457e-05
-1.75835e-05
6.41045e-05
-2.66951e-05
6.88427e-05
-3.4965e-05
7.20941e-05
-4.22535e-05
7.45768e-05
-4.86009e-05
7.61636e-05
-5.41354e-05
7.67209e-05
-5.89975e-05
7.62968e-05
-6.33049e-05
7.50628e-05
-6.71394e-05
7.32082e-05
-7.0559e-05
7.08842e-05
-7.3608e-05
6.81983e-05
-7.63234e-05
6.52262e-05
-7.87352e-05
6.20244e-05
-8.08687e-05
5.86356e-05
-8.27463e-05
5.50939e-05
-8.43884e-05
5.14276e-05
-8.58136e-05
4.76608e-05
-8.70395e-05
4.38142e-05
-8.8082e-05
3.99056e-05
-8.89561e-05
3.59501e-05
-8.96753e-05
3.19602e-05
-9.02521e-05
2.79457e-05
-9.0698e-05
2.39144e-05
-9.10235e-05
1.98719e-05
-9.12436e-05
1.58226e-05
-9.13666e-05
1.17615e-05
-9.14026e-05
7.69124e-06
-9.13629e-05
3.60885e-06
-9.12568e-05
-4.91342e-07
-9.10939e-05
-4.6171e-06
-9.08809e-05
-8.77766e-06
-9.06244e-05
-1.2985e-05
-9.03221e-05
-1.7256e-05
-8.99682e-05
-2.16063e-05
-8.95538e-05
-2.6046e-05
-8.90548e-05
-3.05909e-05
-8.84406e-05
-3.52475e-05
-8.76779e-05
-4.00143e-05
-8.67296e-05
-4.48836e-05
-8.55584e-05
-4.98428e-05
-8.41229e-05
-5.48773e-05
-8.23794e-05
-5.99691e-05
-8.02785e-05
-6.50956e-05
-7.77682e-05
-7.02281e-05
-7.47927e-05
-7.53294e-05
-7.12922e-05
-8.03535e-05
-6.71923e-05
-8.52442e-05
-6.24023e-05
-8.99273e-05
-5.67991e-05
-9.42977e-05
-5.01866e-05
-9.81884e-05
-4.21803e-05
-0.000101278
-3.20468e-05
-0.000102614
-1.81541e-05
-9.95171e-05
-8.15404e-05
-4.06912e-06
5.6427e-05
-1.04273e-05
7.04728e-05
-1.69179e-05
7.53392e-05
-2.2745e-05
7.79282e-05
-2.77861e-05
7.96224e-05
-3.2114e-05
8.04967e-05
-3.58861e-05
8.04966e-05
-3.92277e-05
7.96421e-05
-4.222e-05
7.8058e-05
-4.49042e-05
7.58952e-05
-4.73061e-05
7.32884e-05
-4.94464e-05
7.03406e-05
-5.13463e-05
6.7128e-05
-5.30266e-05
6.37066e-05
-5.45081e-05
6.01187e-05
-5.58099e-05
5.63973e-05
-5.69504e-05
5.25695e-05
-5.79455e-05
4.86574e-05
-5.88103e-05
4.46803e-05
-5.95571e-05
4.0654e-05
-6.01978e-05
3.65922e-05
-6.07421e-05
3.2506e-05
-6.11994e-05
2.84046e-05
-6.15779e-05
2.42949e-05
-6.18862e-05
2.01824e-05
-6.21318e-05
1.6071e-05
-6.23288e-05
1.19606e-05
-6.24828e-05
7.84791e-06
-6.26043e-05
3.73223e-06
-6.27014e-05
-3.91713e-07
-6.27858e-05
-4.53122e-06
-6.28649e-05
-8.6964e-06
-6.295e-05
-1.28988e-05
-6.30473e-05
-1.71575e-05
-6.31713e-05
-2.14821e-05
-6.33204e-05
-2.58962e-05
-6.3488e-05
-3.04233e-05
-6.36488e-05
-3.50862e-05
-6.37598e-05
-3.99035e-05
-6.37628e-05
-4.48803e-05
-6.36006e-05
-5.00054e-05
-6.3217e-05
-5.52606e-05
-6.25557e-05
-6.06307e-05
-6.15521e-05
-6.60992e-05
-6.01424e-05
-7.16383e-05
-5.82604e-05
-7.72114e-05
-5.58418e-05
-8.27728e-05
-5.28229e-05
-8.82627e-05
-4.91434e-05
-9.36075e-05
-4.47257e-05
-9.87154e-05
-3.94651e-05
-0.000103449
-3.31688e-05
-0.000107575
-2.53019e-05
-0.000110481
-1.46349e-05
-0.000110185
-9.61754e-05
1.55094e-06
5.49323e-05
-4.69574e-07
7.25283e-05
-3.06931e-06
7.79499e-05
-5.62427e-06
8.0502e-05
-7.8046e-06
8.18082e-05
-9.51795e-06
8.22227e-05
-1.08851e-05
8.18669e-05
-1.20173e-05
8.07823e-05
-1.3012e-05
7.90545e-05
-1.39039e-05
7.67924e-05
-1.47164e-05
7.4102e-05
-1.54468e-05
7.10747e-05
-1.61014e-05
6.77835e-05
-1.66778e-05
6.42858e-05
-1.71844e-05
6.06261e-05
-1.76242e-05
5.68396e-05
-1.80088e-05
5.29548e-05
-1.83435e-05
4.89945e-05
-1.86409e-05
4.49781e-05
-1.89064e-05
4.09217e-05
-1.91532e-05
3.6839e-05
-1.93866e-05
3.27413e-05
-1.96203e-05
2.86378e-05
-1.98592e-05
2.45354e-05
-2.01174e-05
2.04394e-05
-2.03975e-05
1.63524e-05
-2.07153e-05
1.22765e-05
-2.107e-05
8.20316e-06
-2.14714e-05
4.13147e-06
-2.19177e-05
5.4582e-08
-2.24162e-05
-4.03535e-06
-2.2965e-05
-8.14823e-06
-2.35721e-05
-1.22945e-05
-2.42429e-05
-1.64871e-05
-2.49909e-05
-2.0736e-05
-2.58296e-05
-2.50577e-05
-2.67825e-05
-2.94719e-05
-2.78634e-05
-3.40055e-05
-2.90732e-05
-3.86948e-05
-3.03709e-05
-4.35828e-05
-3.168e-05
-4.86973e-05
-3.29049e-05
-5.40358e-05
-3.39559e-05
-5.95807e-05
-3.4741e-05
-6.53141e-05
-3.51682e-05
-7.12119e-05
-3.51457e-05
-7.7234e-05
-3.45972e-05
-8.3322e-05
-3.34575e-05
-8.9403e-05
-3.16726e-05
-9.53934e-05
-2.91918e-05
-0.000101197
-2.59604e-05
-0.000106682
-2.1908e-05
-0.000111627
-1.69419e-05
-0.000115448
-1.03127e-05
-0.000116815
-0.000106488
7.79297e-06
4.7336e-05
1.48814e-05
6.56886e-05
1.81563e-05
7.47073e-05
2.00461e-05
7.86406e-05
2.16809e-05
8.01785e-05
2.34253e-05
8.04955e-05
2.52707e-05
8.00256e-05
2.71757e-05
7.88902e-05
2.90484e-05
7.71869e-05
3.08496e-05
7.5001e-05
3.25419e-05
7.24162e-05
3.41144e-05
6.95109e-05
3.55556e-05
6.635e-05
3.6863e-05
6.29867e-05
3.80314e-05
5.94651e-05
3.90596e-05
5.58197e-05
3.99399e-05
5.20804e-05
4.06721e-05
4.827e-05
4.12445e-05
4.44092e-05
4.16596e-05
4.05133e-05
4.19038e-05
3.65958e-05
4.19841e-05
3.26662e-05
4.18876e-05
2.87331e-05
4.16255e-05
2.4801e-05
4.11869e-05
2.0874e-05
4.05884e-05
1.69521e-05
3.98232e-05
1.30345e-05
3.89048e-05
9.12021e-06
3.78281e-05
5.19943e-06
3.66138e-05
1.26532e-06
3.52593e-05
-2.69061e-06
3.3783e-05
-6.67735e-06
3.21828e-05
-1.07039e-05
3.04622e-05
-1.477e-05
2.86104e-05
-1.88904e-05
2.66187e-05
-2.30685e-05
2.4451e-05
-2.73088e-05
2.20649e-05
-3.16213e-05
1.94003e-05
-3.60338e-05
1.64187e-05
-4.06028e-05
1.31267e-05
-4.54083e-05
9.61563e-06
-5.05261e-05
6.02878e-06
-5.59965e-05
2.52863e-06
-6.1815e-05
-7.43696e-07
-6.79421e-05
-3.67008e-06
-7.43083e-05
-6.16904e-06
-8.08256e-05
-8.17151e-06
-8.74007e-05
-9.62732e-06
-9.39399e-05
-1.04789e-05
-0.000100346
-1.06562e-05
-0.000106506
-1.00416e-05
-0.000112245
-8.29555e-06
-0.000117199
-5.3642e-06
-0.000119752
-0.000111853
1.43519e-05
3.29804e-05
2.69677e-05
5.30658e-05
3.71833e-05
6.44885e-05
4.57552e-05
7.00701e-05
5.33067e-05
7.26228e-05
6.01532e-05
7.36553e-05
6.65043e-05
7.36783e-05
7.24709e-05
7.29311e-05
7.80787e-05
7.15863e-05
8.33154e-05
6.97744e-05
8.81571e-05
6.7582e-05
9.26564e-05
6.50253e-05
9.68261e-05
6.21841e-05
0.0001007
5.91282e-05
0.000104253
5.59103e-05
0.000107516
5.2571e-05
0.000110446
4.91426e-05
0.000113077
4.56502e-05
0.000115361
4.21133e-05
0.000117333
3.8548e-05
0.000118948
3.4966e-05
0.000120241
3.13771e-05
0.00012117
2.77874e-05
0.000121777
2.41938e-05
0.000122032
2.06027e-05
0.000121965
1.70166e-05
0.000121548
1.34326e-05
0.000120815
9.84877e-06
0.000119733
6.26477e-06
0.000118323
2.67007e-06
0.000116558
-9.40733e-07
0.00011445
-4.57513e-06
0.000111978
-8.24412e-06
0.00010915
-1.19454e-05
0.000105942
-1.56896e-05
0.000102346
-1.9476e-05
9.83367e-05
-2.33035e-05
9.38847e-05
-2.71724e-05
8.89417e-05
-3.10937e-05
8.34757e-05
-3.51395e-05
7.74485e-05
-3.93834e-05
7.0901e-05
-4.39806e-05
6.39701e-05
-4.90673e-05
5.68398e-05
-5.46859e-05
4.9676e-05
-6.07801e-05
4.26026e-05
-6.72356e-05
3.56916e-05
-7.39164e-05
2.89783e-05
-8.06885e-05
2.24766e-05
-8.74399e-05
1.62136e-05
-9.4086e-05
1.02633e-05
-0.000100558
4.79072e-06
-0.000106776
1.07497e-07
-0.000112539
-2.46696e-06
-0.000117209
-0.000114319
2.22147e-05
1.07168e-05
4.35293e-05
3.16071e-05
6.27756e-05
4.52474e-05
7.95222e-05
5.31855e-05
9.48611e-05
5.72894e-05
0.000109228
5.9186e-05
0.000123133
5.97785e-05
0.000136478
5.95491e-05
0.000149309
5.87575e-05
0.000161542
5.75494e-05
0.000173012
5.61109e-05
0.000183759
5.43071e-05
0.00019371
5.22271e-05
0.000202921
4.99486e-05
0.000211306
4.7517e-05
0.000218937
4.49654e-05
0.00022575
4.23184e-05
0.000231818