/*--------------------------------*- C++ -*----------------------------------*\
| =========                 |                                                 |
| \\      /  F ield         | OpenFOAM: The Open Source CFD Toolbox           |
|  \\    /   O peration     | Version:  2312                                  |
|   \\  /    A nd           | Website:  www.openfoam.com                      |
|    \\/     M anipulation  |                                                 |
\*---------------------------------------------------------------------------*/
FoamFile
{
    version     2.0;
    format      ascii;
    arch        "LSB;label=32;scalar=64";
    class       volVectorField;
    location    "4000";
    object      U;
}
// * * * * * * * * * * * * * * * * * * * * * * * * * * * * * * * * * * * * * //

dimensions      [0 1 -1 0 0 0 0];

internalField   nonuniform List<vector> 
5880
(
(0.000456464 -0.00025035 1.39319e-22)
(0.00297222 -0.000342862 0)
(0.00578509 -0.000298268 8.54188e-23)
(0.00794105 -0.000140111 1.75474e-22)
(0.00893759 -1.18773e-05 -2.61979e-22)
(0.00892611 3.61141e-05 3.72082e-24)
(0.00865912 2.71408e-05 -2.06552e-37)
(0.00837156 -6.27028e-06 -6.9695e-29)
(0.0083223 -2.7436e-05 -1.91346e-22)
(0.00836027 -2.4748e-05 -3.67015e-37)
(0.00831788 6.59221e-06 4.03354e-22)
(0.0080529 6.12526e-05 -3.23919e-22)
(0.00746726 0.000135648 -1.24065e-21)
(0.00650315 0.000233105 7.32301e-22)
(0.00507773 0.000357246 1.36818e-21)
(0.0030545 0.000507793 -7.92774e-22)
(0.000388824 0.000651122 0)
(-0.00301204 0.000760231 0)
(-0.00709429 0.000862429 0)
(-0.0121131 0.00097361 -4.75704e-22)
(-0.0185325 0.00107799 0)
(-0.0260293 0.00116386 0)
(-0.0341809 0.00118584 9.31424e-22)
(-0.042833 0.00116755 1.38347e-22)
(-0.0516935 0.00113693 -8.24606e-22)
(-0.0604411 0.00108988 -5.42853e-23)
(-0.0688484 0.0010297 -3.73504e-22)
(-0.0766686 0.000965322 -5.60075e-37)
(-0.0837373 0.000890669 -1.10753e-22)
(-0.0899075 0.000809875 -1.93405e-22)
(-0.095061 0.000715486 -4.46151e-22)
(-0.0991532 0.000580756 0)
(-0.101905 0.000494584 0)
(-0.103202 0.000274136 1.14374e-21)
(-0.103422 0.000104397 1.09825e-21)
(-0.102145 -0.00025896 -4.49277e-22)
(-0.0991946 -0.000566962 1.33871e-21)
(-0.0946727 -0.000965716 0)
(-0.0884346 -0.00140954 -7.39371e-22)
(-0.0805275 -0.00191993 2.85574e-21)
(-0.0709647 -0.00247401 1.24456e-21)
(-0.0599014 -0.00302548 -3.34685e-21)
(-0.047762 -0.00354126 2.68043e-21)
(-0.0347491 -0.00388641 1.99443e-28)
(-0.0213429 -0.00405752 1.20909e-21)
(-0.00829425 -0.00394657 -1.35e-21)
(0.00354021 -0.00333681 -1.64878e-21)
(0.0129474 -0.00220975 1.86514e-21)
(0.0187711 -0.00100796 1.23529e-21)
(0.0201974 3.4837e-05 -4.3086e-22)
(0.0179468 0.000525362 -6.09864e-22)
(0.012832 0.000681238 -3.06057e-23)
(0.00712418 0.000599145 1.42389e-22)
(0.00271986 0.00040507 -2.83754e-23)
(0.000371161 0.00024102 0)
(0.00102544 -0.00144229 3.60176e-22)
(0.00642283 -0.00241035 4.20731e-23)
(0.011889 -0.00225392 -1.28357e-22)
(0.0160886 -0.0013805 1.86961e-22)
(0.0182374 -0.000429008 1.17815e-22)
(0.0183723 0.000150144 2.86302e-23)
(0.0177491 0.000279111 -4.27383e-22)
(0.0164889 0.000227548 6.4522e-22)
(0.0151555 0.000153961 2.07486e-22)
(0.0136325 0.000194564 -1.39115e-21)
(0.0116801 0.000376856 5.98566e-22)
(0.00904518 0.000657878 -3.92176e-22)
(0.00560961 0.000986676 -6.68946e-22)
(0.00127366 0.00137855 5.58845e-22)
(-0.0040959 0.00184344 5.58384e-21)
(-0.0107763 0.00241273 -1.73688e-21)
(-0.0187558 0.00307532 -7.60213e-22)
(-0.028171 0.00375673 0)
(-0.0394149 0.00455281 -2.60065e-22)
(-0.0521982 0.00548669 8.91554e-22)
(-0.0659366 0.00628488 -1.04868e-21)
(-0.0804708 0.00690361 1.48363e-21)
(-0.0952169 0.00729473 2.3067e-22)
(-0.109546 0.00738441 -4.19418e-22)
(-0.123026 0.00723906 -1.03264e-21)
(-0.135289 0.00688332 -6.43462e-22)
(-0.146145 0.00635129 3.91033e-22)
(-0.1554 0.00568998 4.02798e-22)
(-0.162978 0.00492193 1.21467e-22)
(-0.168802 0.00406444 2.2014e-22)
(-0.172785 0.00314351 -1.37939e-21)
(-0.174928 0.0021429 -9.12349e-22)
(-0.175356 0.00118922 -8.80609e-22)
(-0.17391 -4.61415e-05 -2.58144e-21)
(-0.170437 -0.00108098 1.77046e-21)
(-0.165085 -0.00237371 2.72676e-21)
(-0.157799 -0.00361993 2.34979e-21)
(-0.14868 -0.00494127 1.56677e-21)
(-0.137637 -0.00627261 1.93488e-21)
(-0.124779 -0.00760192 -8.84916e-22)
(-0.110214 -0.00889414 8.80396e-21)
(-0.0940931 -0.010024 -2.57367e-21)
(-0.0766896 -0.0109044 1.46243e-21)
(-0.058476 -0.0113819 2.38997e-28)
(-0.0400212 -0.0113651 -5.48711e-21)
(-0.0221098 -0.0107046 -8.27974e-22)
(-0.00551846 -0.00924293 -2.00943e-21)
(0.00902686 -0.00693329 2.69158e-21)
(0.0203667 -0.00385478 -4.02185e-21)
(0.027285 -0.000503454 1.04866e-21)
(0.0281349 0.00259518 3.94233e-22)
(0.0244339 0.00413906 5.426e-22)
(0.0161876 0.00432621 1.42855e-29)
(0.00743623 0.00314518 -6.73705e-23)
(0.00131183 0.00151126 3.18288e-22)
(0.00138773 -0.00363916 -4.97046e-22)
(0.00878377 -0.00568028 4.51889e-22)
(0.0150389 -0.00513698 4.06601e-22)
(0.0195223 -0.00319801 0)
(0.0217716 -0.00113069 5.53434e-22)
(0.021787 0.000358785 5.6178e-22)
(0.0203506 0.00106874 -3.1742e-22)
(0.0178014 0.00132509 -5.66879e-22)
(0.0147242 0.00142076 2.06163e-21)
(0.0111578 0.00168713 -1.21745e-21)
(0.00686307 0.00222001 7.86967e-22)
(0.0015138 0.00296501 -9.16183e-22)
(-0.00513992 0.00385156 -2.25532e-21)
(-0.0133535 0.00491855 -1.89967e-21)
(-0.0232888 0.00615968 3.89475e-21)
(-0.0351053 0.00757608 4.01224e-21)
(-0.0489562 0.00915023 1.50118e-21)
(-0.064899 0.0108135 1.93624e-21)
(-0.0824525 0.0124349 -3.61997e-22)
(-0.100761 0.0138647 4.22192e-22)
(-0.11903 0.0148623 -2.33387e-22)
(-0.136435 0.0152561 -7.92519e-22)
(-0.152408 0.015126 -5.68255e-22)
(-0.16659 0.0145334 -9.6788e-23)
(-0.178833 0.0135528 -5.92889e-22)
(-0.189084 0.0122851 1.26844e-21)
(-0.197369 0.0107985 1.08521e-21)
(-0.203732 0.00916289 1.52933e-22)
(-0.208232 0.00742127 -7.89113e-22)
(-0.210917 0.00559676 2.4566e-22)
(-0.211849 0.00371425 7.0027e-22)
(-0.21104 0.00178588 4.92007e-34)
(-0.208568 -0.00020716 -6.58156e-22)
(-0.20438 -0.00226257 -1.43543e-21)
(-0.198507 -0.00427128 -3.56898e-21)
(-0.190938 -0.00642208 -1.81888e-21)
(-0.181687 -0.00855719 1.90349e-21)
(-0.170735 -0.0107209 2.2477e-21)
(-0.158117 -0.0128509 3.51241e-21)
(-0.143845 -0.0149076 -4.58455e-34)
(-0.128039 -0.0168245 -3.68133e-21)
(-0.110843 -0.0184427 -2.2843e-21)
(-0.0924783 -0.0196585 -3.18505e-21)
(-0.0733263 -0.0203042 7.8975e-22)
(-0.0538926 -0.0201856 -7.24148e-21)
(-0.0348445 -0.0191316 7.70126e-22)
(-0.0169704 -0.0170039 -5.87805e-21)
(-0.00103548 -0.0136839 -2.19773e-21)
(0.0121146 -0.00903266 3.89425e-22)
(0.021537 -0.00340624 2.07739e-21)
(0.0262654 0.00228129 -8.27004e-22)
(0.025428 0.00674408 -1.01715e-21)
(0.0199775 0.00852457 -2.26344e-23)
(0.0107453 0.00745472 -1.28935e-34)
(0.00224727 0.00422381 -7.00238e-23)
(0.00168864 -0.00702006 2.08568e-22)
(0.0101813 -0.00986176 1.42918e-34)
(0.0160059 -0.00828313 1.90078e-22)
(0.019594 -0.00493518 7.07847e-22)
(0.0208343 -0.00156768 4.41026e-22)
(0.0200082 0.000980255 -3.83457e-22)
(0.0176515 0.00247254 1.65277e-22)
(0.0140434 0.00324758 -2.1595e-22)
(0.00941977 0.00380292 1.25404e-22)
(0.00372606 0.00460106 -1.27298e-22)
(-0.00323523 0.0058097 -9.38794e-22)
(-0.0117107 0.0073881 1.53951e-21)
(-0.0220129 0.00927197 -1.67093e-21)
(-0.0344379 0.0114649 -2.09726e-21)
(-0.0491509 0.0139029 -2.30284e-22)
(-0.0661973 0.0165976 8.21515e-36)
(-0.0851594 0.019323 -4.30111e-22)
(-0.105329 0.021801 1.01675e-36)
(-0.12558 0.0237502 -1.1296e-21)
(-0.144758 0.02485 1.37419e-21)
(-0.162048 0.0250063 1.38831e-22)
(-0.177187 0.0243747 -2.0915e-21)
(-0.190103 0.0230423 -1.23669e-22)
(-0.200957 0.0212156 1.00076e-21)
(-0.209837 0.0190391 -1.21914e-21)
(-0.216906 0.0166298 2.85435e-22)
(-0.222275 0.0140652 -1.05804e-21)
(-0.22604 0.0114038 -1.07495e-21)
(-0.228278 0.00868647 -4.84934e-35)
(-0.229045 0.00592763 -6.82628e-22)
(-0.228372 0.0031408 -1.28708e-21)
(-0.226262 0.000316863 4.54157e-34)
(-0.222715 -0.00252775 -5.04648e-22)
(-0.217725 -0.00545998 4.67728e-22)
(-0.211262 -0.00837154 1.57406e-21)
(-0.203297 -0.0113809 2.19746e-21)
(-0.193823 -0.0143941 -3.13121e-21)
(-0.182809 -0.0174278 1.03514e-35)
(-0.170272 -0.0204143 -2.5146e-21)
(-0.156198 -0.0233077 -4.73046e-34)
(-0.140673 -0.0259975 -5.41814e-21)
(-0.123801 -0.0282993 -8.01193e-22)
(-0.10574 -0.0300666 2.95795e-34)
(-0.0867922 -0.0310647 4.53511e-22)
(-0.0673824 -0.0310259 2.50603e-22)
(-0.0480756 -0.0296757 -1.88142e-21)
(-0.0296152 -0.0267879 -3.75075e-22)
(-0.0128442 -0.022171 1.74215e-21)
(0.00136722 -0.015757 1.31004e-21)
(0.012178 -0.00792961 -2.59361e-22)
(0.0189568 0.000379394 1.21942e-21)
(0.0213124 0.00759363 -1.05846e-21)
(0.0184701 0.0121226 -1.0195e-21)
(0.011543 0.0123925 1.08728e-34)
(0.00281849 0.00817262 1.56251e-21)
(0.00195285 -0.0114322 -9.99449e-23)
(0.0105129 -0.0143831 -5.71072e-23)
(0.0150788 -0.0111 5.86719e-22)
(0.017131 -0.00600176 3.40931e-22)
(0.0169587 -0.00127525 -4.9744e-22)
(0.0150028 0.00234218 -1.43566e-23)
(0.0115135 0.00475272 2.391e-22)
(0.00655353 0.006372 -4.69685e-29)
(8.37493e-05 0.00779423 -1.72805e-22)
(-0.00803629 0.00954496 4.98452e-22)
(-0.0180175 0.011856 -9.3789e-22)
(-0.0301053 0.0147315 1.32732e-22)
(-0.0445391 0.0180878 1.19097e-21)
(-0.0614157 0.0218893 -1.15707e-21)
(-0.080504 0.0258469 2.06761e-28)
(-0.101071 0.0296734 9.71366e-22)
(-0.122116 0.0330556 9.20632e-23)
(-0.142382 0.0352822 -3.13223e-22)
(-0.160739 0.0361476 -2.61473e-21)
(-0.176685 0.0358436 -2.76883e-22)
(-0.190303 0.034479 -1.23666e-21)
(-0.201808 0.0323508 -2.73262e-21)
(-0.211394 0.0296812 -5.33747e-24)
(-0.219306 0.0266388 5.34883e-34)
(-0.225687 0.0233591 3.03102e-22)
(-0.230681 0.0199328 2.51804e-21)
(-0.234365 0.016422 9.47628e-22)
(-0.236802 0.012865 6.57283e-35)
(-0.238019 0.00927968 1.02687e-21)
(-0.238038 0.00567112 1.12505e-21)
(-0.236852 0.00203552 4.09965e-23)
(-0.234441 -0.00163406 -8.17783e-36)
(-0.230783 -0.00535155 -2.81873e-22)
(-0.225856 -0.00914932 -1.09276e-21)
(-0.219614 -0.0129835 -1.16806e-21)
(-0.212027 -0.0169091 2.78791e-21)
(-0.203065 -0.0208707 3.43951e-22)
(-0.192692 -0.024862 0)
(-0.180889 -0.0288184 3.20499e-21)
(-0.167635 -0.032684 3.58187e-21)
(-0.152978 -0.0362943 6.22811e-22)
(-0.13698 -0.0394667 -3.72528e-22)
(-0.119706 -0.0419815 2.94569e-21)
(-0.101376 -0.0435171 -2.4431e-22)
(-0.0823322 -0.0437244 -6.69886e-22)
(-0.0630326 -0.042191 -1.15089e-21)
(-0.04415 -0.0385785 1.98066e-21)
(-0.0265399 -0.0326182 2.50333e-21)
(-0.0111402 -0.0242746 0)
(0.00113355 -0.0140476 1.80869e-22)
(0.00959052 -0.00306036 -2.16515e-22)
(0.0139314 0.0070718 1.1821e-21)
(0.0139079 0.0144422 1.30373e-21)
(0.0096371 0.0167535 1.58809e-22)
(0.00280644 0.0125106 5.7429e-22)
(0.00205294 -0.0166378 5.81862e-22)
(0.0095773 -0.0183408 1.21971e-21)
(0.012203 -0.0129957 -1.65833e-22)
(0.0124083 -0.00603661 -1.11734e-22)
(0.010685 4.68279e-05 -2.79118e-22)
(0.00734986 0.00481449 -1.40753e-22)
(0.00236738 0.00836921 2.60699e-23)
(-0.00445774 0.0112292 -4.13873e-23)
(-0.0133072 0.0140422 1.96006e-22)
(-0.0243614 0.0173351 2.69415e-22)
(-0.0377878 0.0213405 -2.63989e-22)
(-0.0536849 0.0260215 -5.24387e-23)
(-0.0719689 0.0311539 0)
(-0.0920901 0.0364205 -9.30537e-22)
(-0.11313 0.041382 2.58478e-21)
(-0.134009 0.0453249 3.70879e-22)
(-0.15324 0.0476524 -3.19367e-22)
(-0.170032 0.0483028 -7.26921e-22)
(-0.184397 0.0473944 -9.83596e-22)
(-0.196539 0.0453305 4.21379e-21)
(-0.206844 0.0424665 -1.17183e-21)
(-0.215532 0.0390254 7.53006e-22)
(-0.222836 0.0352188 2.47954e-21)
(-0.228913 0.0311655 1.13278e-21)
(-0.23386 0.0269649 2.07317e-21)
(-0.237757 0.0226814 2.94116e-21)
(-0.240633 0.0183453 -1.1221e-22)
(-0.242508 0.0139786 2.00007e-21)
(-0.243373 0.0095889 1.82515e-22)
(-0.243223 0.00517024 3.75051e-21)
(-0.242036 0.000708815 2.56721e-21)
(-0.239785 -0.00380971 -5.42237e-22)
(-0.236433 -0.00840358 1.98961e-21)
(-0.231961 -0.0130908 -2.95796e-22)
(-0.226317 -0.0178638 -9.08659e-22)
(-0.219471 -0.0227447 -8.94317e-22)
(-0.211384 -0.0277011 7.51642e-22)
(-0.202014 -0.0327124 -2.33785e-21)
(-0.191319 -0.0377169 -2.24861e-21)
(-0.179266 -0.0426313 1.42661e-21)
(-0.165846 -0.0472639 6.07109e-21)
(-0.151076 -0.0514358 -1.54719e-21)
(-0.134974 -0.0548765 2.81471e-21)
(-0.11762 -0.0571721 3.45468e-21)
(-0.0992454 -0.0578658 2.59827e-21)
(-0.0802084 -0.0564235 -5.63886e-22)
(-0.0610524 -0.0523516 2.18712e-21)
(-0.0425465 -0.0452375 -1.24607e-21)
(-0.0256513 -0.034998 -1.71141e-21)
(-0.0114377 -0.0222149 2.1859e-22)
(-0.000886603 -0.00826529 7.60255e-22)
(0.0054914 0.0049057 1.62911e-21)
(0.00778352 0.015203 3.11845e-21)
(0.00618927 0.0198957 1.13801e-21)
(0.00204178 0.0161628 -5.1375e-22)
(0.00177013 -0.0218472 -2.22814e-21)
(0.00695542 -0.0210282 6.48365e-22)
(0.00746956 -0.0132576 1.62621e-22)
(0.00558562 -0.00459429 -6.18339e-22)
(0.0021194 0.00284936 2.05691e-22)
(-0.00299166 0.00897855 5.57001e-23)
(-0.0100211 0.0140858 -3.7602e-23)
(-0.0192613 0.0187298 -3.88986e-23)
(-0.0309302 0.0235239 -2.02913e-22)
(-0.0451519 0.0289091 4.2034e-22)
(-0.0618997 0.0350005 -8.42632e-23)
(-0.0808332 0.0415518 -9.37884e-22)
(-0.101185 0.0480609 3.94613e-34)
(-0.121957 0.0539593 2.15605e-21)
(-0.141852 0.0583161 3.40682e-21)
(-0.159561 0.0606576 -2.77869e-21)
(-0.174657 0.0609407 1.85276e-21)
(-0.187494 0.0595283 -1.60247e-21)
(-0.198415 0.056893 3.58498e-21)
(-0.207745 0.0534037 1.15379e-21)
(-0.215786 0.0493394 -3.3207e-22)
(-0.222694 0.0448668 4.30552e-21)
(-0.228622 0.0401477 2.68133e-21)
(-0.233636 0.0352648 1.14856e-21)
(-0.237796 0.0302827 2.4349e-21)
(-0.241125 0.025239 -7.29243e-22)
(-0.243626 0.0201507 -2.42358e-21)
(-0.245291 0.0150243 -4.95558e-22)
(-0.246094 0.00986294 -1.33235e-21)
(-0.246018 0.00465431 2.81132e-22)
(-0.245037 -0.000622365 1.86386e-21)
(-0.243123 -0.00598366 2.60698e-22)
(-0.240246 -0.0114466 4.25057e-22)
(-0.236377 -0.0170279 -2.30513e-22)
(-0.231482 -0.0227357 1.65845e-21)
(-0.225527 -0.0285781 -8.35956e-22)
(-0.218475 -0.0345359 4.57646e-22)
(-0.210288 -0.0405834 -6.74109e-23)
(-0.200917 -0.0466645 -8.64974e-22)
(-0.190318 -0.0526792 -6.95849e-21)
(-0.178439 -0.0584387 1.01818e-21)
(-0.165224 -0.0637531 1.42783e-21)
(-0.150652 -0.0683076 -4.28253e-21)
(-0.134732 -0.0716472 8.86295e-22)
(-0.117505 -0.0732171 4.23203e-22)
(-0.0991565 -0.0723498 3.87026e-22)
(-0.0800677 -0.0683409 -2.9496e-21)
(-0.0608397 -0.0605465 -1.51105e-21)
(-0.0423195 -0.048697 6.46007e-22)
(-0.0256693 -0.0333192 1.89875e-22)
(-0.0122552 -0.0159988 -1.31334e-22)
(-0.00322914 0.000697801 -1.45437e-22)
(0.0013143 0.0141888 -5.23513e-22)
(0.00224721 0.0214087 -1.23344e-21)
(0.00083124 0.0182828 3.74469e-21)
(0.000119638 -0.0258851 1.92259e-21)
(0.00303182 -0.0217487 -1.74241e-21)
(0.000967572 -0.011262 2.12539e-21)
(-0.00310336 -0.00110274 3.11646e-22)
(-0.00868534 0.00784107 -1.00538e-22)
(-0.016074 0.0157071 6.55748e-22)
(-0.0256325 0.0228655 4.98186e-23)
(-0.0376272 0.0298247 3.9937e-22)
(-0.0521514 0.0370418 -8.62847e-29)
(-0.0691149 0.0447412 -8.38442e-22)
(-0.0880312 0.0527282 -1.55872e-21)
(-0.107945 0.0604824 1.77495e-21)
(-0.127847 0.0671485 3.98321e-21)
(-0.146281 0.0718131 2.00935e-21)
(-0.162238 0.0740586 -3.79164e-21)
(-0.175772 0.0739947 -2.63763e-21)
(-0.187277 0.0722084 -3.00356e-21)
(-0.197143 0.0691482 -2.68297e-21)
(-0.205701 0.0651814 -3.54137e-22)
(-0.213205 0.0606001 -2.62726e-21)
(-0.21981 0.0556025 3.99118e-21)
(-0.22561 0.0503136 3.32715e-22)
(-0.230679 0.0448383 3.24052e-22)
(-0.235039 0.0392363 5.53223e-22)
(-0.238709 0.0335536 3.56816e-22)
(-0.241678 0.0278136 -3.82698e-21)
(-0.243927 0.0220306 -1.90619e-21)
(-0.245476 0.0161713 -2.98755e-21)
(-0.246302 0.0102445 -1.71642e-22)
(-0.246358 0.00425126 -3.93186e-21)
(-0.245609 -0.00182768 -1.98751e-21)
(-0.244032 -0.00801845 9.34571e-22)
(-0.24162 -0.0143423 3.22269e-22)
(-0.23834 -0.0208064 9.81411e-22)
(-0.234173 -0.0274247 -2.02353e-21)
(-0.229091 -0.0342051 4.46196e-22)
(-0.223069 -0.0411361 -7.11125e-24)
(-0.216075 -0.0481937 -1.9601e-21)
(-0.208072 -0.05533 2.07153e-21)
(-0.199015 -0.0624484 1.72133e-21)
(-0.188847 -0.0693904 -5.86129e-21)
(-0.17748 -0.0759524 0)
(-0.164814 -0.0818002 1.40834e-21)
(-0.150776 -0.0864816 -3.34386e-21)
(-0.135291 -0.0893619 -5.3598e-21)
(-0.118334 -0.0896682 -3.87472e-21)
(-0.099998 -0.0864678 -7.28856e-22)
(-0.0806216 -0.0788476 1.81393e-21)
(-0.0608072 -0.0661676 -2.3184e-22)
(-0.0416292 -0.0486138 -2.50964e-21)
(-0.0246565 -0.027672 -2.01291e-21)
(-0.0119123 -0.00652756 7.2645e-22)
(-0.00438337 0.0110954 -2.88334e-22)
(-0.00120123 0.0204675 -2.52045e-22)
(-0.000194821 0.0183305 -1.21883e-21)
(-0.00161513 -0.0269948 4.41094e-21)
(-0.00216814 -0.0190191 -1.60969e-21)
(-0.00685542 -0.00645079 -1.26914e-21)
(-0.0133826 0.00527625 1.21526e-21)
(-0.0215027 0.0160179 -1.15235e-22)
(-0.0315385 0.0260469 2.97686e-22)
(-0.0437935 0.035679 -4.91942e-23)
(-0.0583482 0.045225 4.50589e-24)
(-0.0750666 0.0548247 1.29974e-21)
(-0.0934033 0.0643726 -1.54893e-21)
(-0.112408 0.0733283 -3.64963e-22)
(-0.130916 0.0806679 5.37589e-21)
(-0.147617 0.0855765 -7.51167e-22)
(-0.161876 0.0876828 -4.7577e-21)
(-0.17397 0.087425 -3.35595e-22)
(-0.18432 0.0853823 -2.00244e-21)
(-0.193285 0.0820255 -1.97339e-21)
(-0.201172 0.077727 1.02828e-21)
(-0.208197 0.0727699 3.57116e-22)
(-0.214493 0.067348 -3.35336e-21)
(-0.220133 0.0615954 2.6522e-22)
(-0.225165 0.0556144 -5.14541e-21)
(-0.229616 0.0494691 -2.56603e-21)
(-0.233482 0.0432043 -4.31975e-21)
(-0.23676 0.0368468 -3.3638e-21)
(-0.239431 0.0304108 -1.50092e-21)
(-0.241485 0.0239044 1.16365e-21)
(-0.242882 0.0173456 1.5758e-21)
(-0.24361 0.0106981 -1.08331e-21)
(-0.243661 0.00393789 -1.24309e-21)
(-0.24302 -0.00294025 -2.67694e-21)
(-0.241676 -0.00994345 -1.03463e-21)
(-0.239608 -0.0170935 -2.53791e-21)
(-0.236802 -0.0244071 -1.1157e-21)
(-0.233244 -0.0318971 3.70914e-22)
(-0.228919 -0.0395693 3.50164e-23)
(-0.223814 -0.0474172 -2.80284e-22)
(-0.217912 -0.0554205 -1.83179e-21)
(-0.21119 -0.0635382 -1.96477e-21)
(-0.203615 -0.0716885 2.54788e-21)
(-0.195147 -0.0797504 -2.40757e-21)
(-0.185709 -0.0875385 5.87061e-28)
(-0.17519 -0.0947434 1.58735e-21)
(-0.163448 -0.10092 -9.75997e-23)
(-0.150277 -0.105447 -5.13234e-22)
(-0.135473 -0.107488 -3.09317e-21)
(-0.118857 -0.105978 6.29016e-23)
(-0.100374 -0.0997462 1.02334e-21)
(-0.0802244 -0.0876597 -2.20499e-21)
(-0.0591436 -0.0692454 -1.89022e-21)
(-0.0386105 -0.0453539 1.17965e-21)
(-0.0210834 -0.0190786 1.19752e-23)
(-0.00877614 0.00436851 -1.28557e-22)
(-0.00313193 0.0169547 -5.07429e-22)
(-0.000575976 0.0171365 -1.1827e-21)
(-0.00494218 -0.0240474 -5.28968e-21)
(-0.00818988 -0.0121459 1.68559e-22)
(-0.0155122 0.00220797 -1.89553e-21)
(-0.0247312 0.0156178 -1.68387e-22)
(-0.0355853 0.028428 1.26096e-22)
(-0.0482379 0.0408565 1.414e-22)
(-0.0627855 0.0529797 1.61042e-21)
(-0.0790059 0.0647843 1.04845e-21)
(-0.096396 0.076025 -3.47921e-21)
(-0.114165 0.0861871 -2.11826e-21)
(-0.131016 0.0941962 2.45742e-21)
(-0.14593 0.0993206 5.14829e-22)
(-0.158654 0.101434 -4.59935e-21)
(-0.169467 0.101118 4.16542e-21)
(-0.178798 0.098962 -9.32561e-22)
(-0.186967 0.0954433 -3.19854e-22)
(-0.19424 0.0909406 -1.60359e-21)
(-0.200801 0.0857221 3.05944e-21)
(-0.206748 0.0799846 -4.79627e-21)
(-0.212144 0.0738656 -3.28665e-21)
(-0.217028 0.0674602 -8.37304e-22)
(-0.221409 0.060846 -2.75342e-22)
(-0.225286 0.0540674 -1.17879e-21)
(-0.228649 0.0471586 6.65713e-22)
(-0.231483 0.0401409 1.12857e-21)
(-0.233774 0.0330258 1.64094e-28)
(-0.235508 0.025816 1.53685e-21)
(-0.236669 0.0185123 -1.37145e-21)
(-0.237239 0.0111084 -1.54245e-21)
(-0.237215 0.00359207 2.48649e-21)
(-0.236591 -0.00404973 1.19261e-22)
(-0.235361 -0.0118334 -1.57711e-22)
(-0.233515 -0.0197764 -1.3278e-21)
(-0.231052 -0.027893 -2.75368e-21)
(-0.227968 -0.0361953 1.11159e-21)
(-0.22426 -0.0446888 -4.90398e-21)
(-0.219927 -0.053369 0)
(-0.214966 -0.0622175 -3.76457e-21)
(-0.20937 -0.0711985 3.28456e-33)
(-0.203122 -0.0802428 -1.73933e-21)
(-0.196202 -0.0892553 -2.51688e-21)
(-0.188572 -0.0980947 -3.98775e-21)
(-0.180142 -0.106514 9.80618e-21)
(-0.170765 -0.114148 3.43344e-21)
(-0.160212 -0.120445 -5.79026e-21)
(-0.148159 -0.124622 2.29614e-22)
(-0.134187 -0.125615 -3.16901e-21)
(-0.117912 -0.122039 1.33326e-21)
(-0.0990326 -0.112404 1.27952e-21)
(-0.0776119 -0.09535 9.1026e-22)
(-0.0546312 -0.0705837 -9.24546e-22)
(-0.0323433 -0.0399589 -6.48056e-22)
(-0.0140087 -0.00895261 -1.45883e-21)
(-0.00458843 0.0104777 1.06185e-21)
(-0.000838074 0.0147595 -7.60037e-22)
(-0.00831164 -0.0152785 -5.27255e-21)
(-0.0144474 1.68757e-05 -1.38003e-21)
(-0.0241177 0.0157748 -4.06412e-21)
(-0.0359794 0.0308532 -7.60076e-22)
(-0.0493205 0.0457128 1.1622e-21)
(-0.0639695 0.0603162 -1.3967e-21)
(-0.079741 0.0743127 -1.41155e-21)
(-0.0961374 0.0872913 -2.66067e-21)
(-0.112524 0.0986673 1.95757e-21)
(-0.127751 0.107397 7.44791e-22)
(-0.141058 0.112842 4.17505e-22)
(-0.152436 0.115173 3.10145e-21)
(-0.162153 0.114963 1.10143e-21)
(-0.1706 0.11284 2.04115e-21)
(-0.17806 0.109291 1.82009e-21)
(-0.184766 0.10469 3.63255e-33)
(-0.190854 0.0993154 -1.6755e-21)
(-0.196417 0.0933546 1.68238e-21)
(-0.201499 0.0869406 -3.367e-21)
(-0.206126 0.0801863 3.31738e-21)
(-0.21031 0.07316 3.81426e-21)
(-0.214045 0.0659174 -3.62147e-22)
(-0.217324 0.0584975 2.52859e-21)
(-0.220138 0.0509307 2.83361e-21)
(-0.222476 0.0432374 9.10523e-22)
(-0.224329 0.0354301 1.97122e-21)
(-0.225691 0.0275146 -4.85376e-22)
(-0.226553 0.0194929 6.80862e-22)
(-0.226911 0.0113615 1.14293e-21)
(-0.22676 0.00311165 4.41051e-21)
(-0.226097 -0.00526898 1.79894e-21)
(-0.224921 -0.0137948 -6.91433e-22)
(-0.223232 -0.0224796 -1.69351e-21)
(-0.221033 -0.0313355 -8.33999e-22)
(-0.218329 -0.0403723 3.51331e-21)
(-0.215128 -0.0495946 2.65696e-21)
(-0.211436 -0.0589995 2.47015e-21)
(-0.207259 -0.0685726 -1.23508e-21)
(-0.202602 -0.0782811 1.70383e-21)
(-0.197465 -0.0880644 2.35434e-21)
(-0.191833 -0.0978413 5.5716e-21)
(-0.185692 -0.107497 -2.86644e-22)
(-0.179008 -0.11687 -5.69451e-21)
(-0.171675 -0.125696 1.80109e-20)
(-0.163518 -0.133574 1.9483e-21)
(-0.154237 -0.139891 -3.79916e-21)
(-0.143386 -0.143721 -2.95062e-21)
(-0.130329 -0.14374 5.01869e-21)
(-0.114386 -0.13821 1.77128e-21)
(-0.0949991 -0.125105 9.94053e-22)
(-0.0721162 -0.102688 1.34226e-21)
(-0.0470754 -0.0705985 1.05811e-21)
(-0.0232939 -0.0320854 1.09476e-21)
(-0.00772368 -0.000267682 3.91411e-21)
(-0.00173711 0.0115205 -3.06805e-21)
(-0.0114233 -0.000364026 -5.51278e-21)
(-0.0199192 0.0180367 -2.92272e-21)
(-0.0315276 0.0348202 -1.57106e-21)
(-0.0454837 0.0512491 -7.49427e-22)
(-0.0604739 0.0677039 3.35475e-21)
(-0.0759315 0.0835942 -1.88781e-21)
(-0.0914793 0.0981633 -4.66257e-21)
(-0.106632 0.110701 6.56599e-21)
(-0.120497 0.120213 4.97529e-21)
(-0.132547 0.126154 -1.92853e-21)
(-0.14285 0.128857 2.59882e-21)
(-0.151688 0.128904 1.28497e-21)
(-0.15941 0.126946 6.61947e-21)
(-0.166271 0.123475 5.21361e-21)
(-0.172456 0.118878 -5.6302e-21)
(-0.178098 0.113425 -7.37595e-21)
(-0.183259 0.107309 5.47977e-35)
(-0.18798 0.100672 4.48189e-21)
(-0.192284 0.0936152 -2.03035e-21)
(-0.196181 0.0862273 -3.3875e-21)
(-0.199671 0.0785647 6.69338e-22)
(-0.202751 0.0706769 4.40677e-21)
(-0.20542 0.0626024 6.62461e-22)
(-0.207674 0.054371 1.56538e-21)
(-0.209512 0.0460044 6.52423e-22)
(-0.210931 0.0375169 -6.07646e-22)
(-0.211931 0.0289163 -1.22151e-21)
(-0.21251 0.0202051 3.09863e-21)
(-0.212667 0.0113805 3.17374e-22)
(-0.212401 0.00243511 -9.14305e-22)
(-0.211714 -0.00664111 4.85486e-21)
(-0.210606 -0.0158592 3.65004e-21)
(-0.209081 -0.02523 1.14538e-23)
(-0.207142 -0.0347623 8.83207e-22)
(-0.204793 -0.0444624 2.51268e-21)
(-0.202043 -0.054333 9.84953e-22)
(-0.198899 -0.0643699 1.20062e-21)
(-0.195374 -0.0745595 3.67366e-21)
(-0.191479 -0.0848739 2.86027e-22)
(-0.187221 -0.0952668 -1.21503e-21)
(-0.182598 -0.105668 -7.60383e-21)
(-0.177589 -0.115976 1.66308e-20)
(-0.172172 -0.126062 1.52413e-21)
(-0.166316 -0.135749 -1.27271e-21)
(-0.159926 -0.144782 8.0005e-21)
(-0.152806 -0.152755 -3.26906e-21)
(-0.144629 -0.159041 -5.33247e-21)
(-0.134872 -0.162635 2.86381e-21)
(-0.122738 -0.161969 1.59554e-21)
(-0.107228 -0.154785 1.99176e-21)
(-0.0874733 -0.13822 4.39944e-21)
(-0.0633898 -0.10958 1.28271e-21)
(-0.0370419 -0.0680793 2.24408e-21)
(-0.0131872 -0.0197238 -9.94975e-22)
(-0.00376373 0.00514947 -1.32167e-22)
(-0.0134102 0.0207572 -8.56317e-21)
(-0.0234517 0.0420015 -1.34673e-20)
(-0.0363316 0.0593676 6.46685e-21)
(-0.0514141 0.0764612 6.31859e-22)
(-0.0667467 0.0933565 -2.72241e-21)
(-0.0816412 0.109031 -6.81108e-22)
(-0.0958374 0.122571 4.61299e-21)
(-0.108716 0.132897 6.34492e-21)
(-0.119886 0.139478 -4.32333e-22)
(-0.129445 0.142658 8.90775e-22)
(-0.137657 0.14305 -2.54204e-22)
(-0.144845 0.14133 -1.15334e-27)
(-0.15124 0.13801 -2.81718e-22)
(-0.156998 0.133467 -1.68625e-21)
(-0.162231 0.127984 -6.87356e-21)
(-0.167004 0.121755 8.56159e-22)
(-0.171353 0.114923 1.19056e-21)
(-0.175301 0.107604 -3.22128e-22)
(-0.178867 0.0998846 -3.12129e-21)
(-0.182057 0.0918377 3.73313e-21)
(-0.18488 0.0835196 1.23431e-21)
(-0.18734 0.0749791 8.99108e-22)
(-0.189441 0.0662546 1.60506e-21)
(-0.191188 0.0573754 -1.20627e-21)
(-0.192582 0.0483632 -3.39902e-21)
(-0.193629 0.0392323 -3.17658e-22)
(-0.194329 0.0299906 5.11542e-22)
(-0.194687 0.0206405 -3.26841e-35)
(-0.194704 0.011179 8.24043e-22)
(-0.194383 0.00159943 -2.5199e-21)
(-0.193726 -0.0081076 -2.07668e-21)
(-0.192735 -0.0179524 -1.92724e-21)
(-0.191411 -0.0279449 -1.06376e-21)
(-0.189758 -0.0380927 -1.42868e-21)
(-0.187778 -0.0484007 -1.69317e-21)
(-0.185475 -0.0588669 -7.15205e-28)
(-0.182852 -0.069483 3.34581e-21)
(-0.179914 -0.0802329 2.46375e-21)
(-0.176664 -0.091092 -7.51737e-21)
(-0.173106 -0.102023 -6.01646e-21)
(-0.169249 -0.112969 -7.6741e-21)
(-0.165095 -0.123847 3.27154e-22)
(-0.160614 -0.134543 5.59625e-21)
(-0.155755 -0.144913 -2.2213e-21)
(-0.150485 -0.154772 2.88716e-21)
(-0.144717 -0.163878 -4.91188e-21)
(-0.138265 -0.171855 -1.29273e-27)
(-0.130824 -0.178095 -4.82316e-22)
(-0.121861 -0.181566 -3.54794e-21)
(-0.110508 -0.180464 2.82304e-21)
(-0.0954915 -0.171799 6.4829e-21)
(-0.0756645 -0.15127 -3.97574e-21)
(-0.0508127 -0.11411 3.51314e-21)
(-0.0230697 -0.0583989 -9.22383e-22)
(-0.00545071 -0.00923227 1.21395e-20)
(-0.0134418 0.0474927 -4.59071e-21)
(-0.0241679 0.0710395 7.82571e-22)
(-0.0375189 0.0881859 1.36432e-20)
(-0.0523363 0.104696 2.86474e-22)
(-0.0667547 0.120583 -6.17187e-21)
(-0.0802231 0.134761 4.33896e-21)
(-0.0924012 0.145884 1.08635e-20)
(-0.102972 0.153177 -3.80639e-22)
(-0.112038 0.156909 -4.90321e-21)
(-0.119843 0.157687 -6.06772e-21)
(-0.126654 0.156209 -4.19125e-21)
(-0.132698 0.153032 0)
(-0.138111 0.148538 5.44108e-21)
(-0.142989 0.143011 -4.7736e-21)
(-0.147403 0.136656 2.6843e-27)
(-0.151397 0.129629 6.29963e-21)
(-0.155003 0.12205 -4.23368e-21)
(-0.15824 0.114019 -2.94397e-21)
(-0.16113 0.105616 8.1412e-21)
(-0.163686 0.0969047 4.6999e-21)
(-0.165918 0.08794 -2.11665e-21)
(-0.167838 0.0787676 4.90814e-21)
(-0.169457 0.069424 -1.62434e-21)
(-0.170781 0.0599376 -3.80414e-21)
(-0.171817 0.0503285 3.37847e-21)
(-0.172571 0.0406101 2.9629e-22)
(-0.173051 0.0307893 1.41198e-21)
(-0.173261 0.0208673 -4.94338e-22)
(-0.173205 0.0108406 1.87533e-21)
(-0.17289 0.00070163 1.19993e-21)
(-0.172317 -0.00955968 1.2209e-21)
(-0.171489 -0.0199547 1.43958e-21)
(-0.170408 -0.0304947 -1.95475e-21)
(-0.169073 -0.0411887 5.69942e-28)
(-0.167484 -0.0520426 1.16697e-21)
(-0.165638 -0.0630553 -5.70554e-21)
(-0.163532 -0.0742187 6.31863e-22)
(-0.161162 -0.0855145 8.9121e-21)
(-0.158524 -0.0969137 2.75282e-21)
(-0.155613 -0.108379 -3.7521e-21)
(-0.152421 -0.119862 0)
(-0.148939 -0.131302 -2.37137e-21)
(-0.145162 -0.142608 3.10785e-22)
(-0.141061 -0.153657 -3.16829e-21)
(-0.13657 -0.164296 6.17553e-22)
(-0.131625 -0.17434 5.32709e-21)
(-0.126147 -0.183539 4.07194e-21)
(-0.119976 -0.191538 -1.52415e-27)
(-0.112827 -0.19775 -1.14367e-20)
(-0.104209 -0.201124 -7.20177e-21)
(-0.093299 -0.199614 7.58591e-21)
(-0.078726 -0.189233 -4.09306e-21)
(-0.0587912 -0.163162 1.1981e-21)
(-0.0332739 -0.112955 3.59128e-21)
(-0.00358681 -0.0367505 6.22256e-21)
(-0.0122013 0.0780011 -1.28075e-21)
(-0.0223965 0.103477 1.07519e-21)
(-0.0350204 0.119545 5.73554e-21)
(-0.0484142 0.134392 -7.6993e-21)
(-0.0611311 0.148257 -3.20555e-21)
(-0.0725334 0.159764 -1.77216e-21)
(-0.0824855 0.167721 3.7435e-22)
(-0.0910698 0.17202 -2.2606e-21)
(-0.0984841 0.173175 -1.24453e-21)
(-0.104948 0.171882 5.01772e-21)
(-0.110657 0.168754 4.55941e-21)
(-0.115747 0.164221 -5.26352e-21)
(-0.1203 0.158575 6.10475e-22)
(-0.124382 0.152039 -2.73559e-21)
(-0.128045 0.144781 8.45697e-22)
(-0.131329 0.13693 -1.93845e-21)
(-0.134264 0.128589 -2.30286e-22)
(-0.136873 0.119841 6.07284e-37)
(-0.139174 0.11076 -2.87763e-21)
(-0.141185 0.101402 1.83799e-21)
(-0.142919 0.0918174 3.14163e-21)
(-0.14439 0.0820489 7.19414e-21)
(-0.14561 0.0721305 -4.98229e-21)
(-0.146592 0.0620876 -3.80254e-21)
(-0.147348 0.0519405 6.52293e-28)
(-0.147884 0.0417003 -1.21587e-21)
(-0.148209 0.0313726 1.32081e-33)
(-0.148331 0.0209567 -2.57042e-22)
(-0.148257 0.0104476 -2.20418e-21)
(-0.147993 -0.000164384 -1.49781e-21)
(-0.147544 -0.0108918 1.24525e-21)
(-0.146912 -0.0217491 1.97938e-21)
(-0.1461 -0.032751 4.3162e-22)
(-0.145105 -0.0439106 -1.99971e-21)
(-0.143924 -0.0552372 2.2739e-21)
(-0.142549 -0.0667338 2.20339e-21)
(-0.14097 -0.0783956 4.87488e-23)
(-0.139172 -0.090209 -4.24024e-21)
(-0.137147 -0.102151 1.25357e-21)
(-0.134879 -0.114186 -2.58201e-22)
(-0.13235 -0.126264 4.60122e-21)
(-0.129538 -0.138326 5.20655e-21)
(-0.126414 -0.150302 -1.0076e-20)
(-0.122957 -0.162103 -1.3892e-27)
(-0.11913 -0.173607 3.78464e-21)
(-0.114867 -0.184653 6.86105e-22)
(-0.110083 -0.195047 -2.53981e-22)
(-0.104685 -0.204523 -9.9242e-22)
(-0.0985302 -0.212706 7.69921e-22)
(-0.0913464 -0.218958 2.67297e-21)
(-0.0826916 -0.222087 -8.10952e-21)
(-0.0718411 -0.219542 -1.0345e-20)
(-0.0573596 -0.205463 2.32662e-21)
(-0.0366202 -0.168074 -1.26273e-20)
(-0.00732232 -0.0936232 -1.30613e-21)
(-0.0097725 0.108403 -2.56043e-21)
(-0.0182561 0.135638 1.57956e-21)
(-0.0292213 0.150259 -1.17344e-20)
(-0.0404229 0.162846 4.56636e-21)
(-0.0507903 0.173889 1.38882e-21)
(-0.0598755 0.182273 5.53692e-22)
(-0.0677401 0.187303 1.42154e-20)
(-0.0745564 0.18905 -1.27008e-20)